<?xml version="1.0" encoding="ISO-8859-1"?>
<modeling>
 <generator>
  <i name="program" type="string">vasp </i>
  <i name="version" type="string">6.3.0  </i>
  <i name="subversion" type="string">20Jan22 (build May 31 2022 14:28:34) complex                          parallel </i>
  <i name="platform" type="string">LinuxIFC </i>
  <i name="date" type="string">2022 08 23 </i>
  <i name="time" type="string">14:15:36 </i>
 </generator>
 <incar>
  <i type="string" name="SYSTEM">FeCoNi</i>
  <i type="int" name="ISTART">     0</i>
  <i type="string" name="PREC">accurate</i>
  <i type="string" name="ALGO">Fast</i>
  <i type="int" name="ISPIN">     2</i>
  <i type="int" name="ICHARG">     2</i>
  <i type="int" name="NELM">   100</i>
  <i type="int" name="IBRION">     2</i>
  <i name="EDIFF">      0.00000200</i>
  <i name="EDIFFG">     -0.02000000</i>
  <i type="int" name="NSW">   200</i>
  <i type="int" name="ISIF">     3</i>
  <i name="ENCUT">    520.00000000</i>
  <i name="POTIM">      0.50000000</i>
  <v name="MAGMOM">      5.00000000      5.00000000      5.00000000      5.00000000      5.00000000      5.00000000      5.00000000      5.00000000      5.00000000      5.00000000      5.00000000      5.00000000      5.00000000      5.00000000      5.00000000      5.00000000      5.00000000      5.00000000      5.00000000      5.00000000
      5.00000000      5.00000000      5.00000000      5.00000000      5.00000000      5.00000000      5.00000000      5.00000000      5.00000000      5.00000000      5.00000000      5.00000000      5.00000000      5.00000000      5.00000000      5.00000000      5.00000000      5.00000000      5.00000000      5.00000000
      5.00000000      5.00000000      5.00000000      5.00000000      5.00000000      5.00000000      5.00000000      5.00000000      5.00000000      5.00000000      5.00000000      5.00000000      5.00000000      5.00000000</v>
  <i type="string" name="LREAL">AUTO</i>
  <i type="int" name="ISMEAR">     1</i>
  <i name="SIGMA">      0.20000000</i>
  <i type="logical" name="LWAVE"> F  </i>
  <i type="logical" name="LCHARG"> F  </i>
 </incar>
 <primitive_cell>
  <structure name="primitive_cell" >
   <crystal>
    <varray name="basis" >
     <v>       0.00000000       2.83950716       0.00000000 </v>
     <v>       0.00000000       0.00000000       2.83950716 </v>
     <v>       8.51853000       0.00000000       0.00000000 </v>
    </varray>
    <i name="volume">     68.68321147 </i>
    <varray name="rec_basis" >
     <v>       0.00000000       0.35217379       0.00000000 </v>
     <v>       0.00000000       0.00000000       0.35217379 </v>
     <v>       0.11739115       0.00000000       0.00000000 </v>
    </varray>
   </crystal>
   <varray name="positions" >
    <v>       0.00000000       0.00000000       0.00000000 </v>
    <v>       0.00000000       0.00000000       0.33333300 </v>
    <v>       0.00000000       0.00000000       0.66666700 </v>
    <v>       0.50000150       0.50000150       0.16666700 </v>
    <v>       0.50000150       0.50000150       0.50000000 </v>
    <v>       0.50000150       0.50000150       0.83333300 </v>
   </varray>
  </structure>
  <varray name="primitive_index" >
   <v type="int" >        1 </v>
   <v type="int" >       10 </v>
   <v type="int" >       19 </v>
   <v type="int" >       28 </v>
   <v type="int" >       37 </v>
   <v type="int" >       46 </v>
  </varray>
 </primitive_cell>
 <kpoints>
  <generation param="Monkhorst-Pack">
   <v type="int" name="divisions">       3        3        3 </v>
   <v name="usershift">      0.00000000       0.00000000       0.00000000 </v>
   <v name="genvec1">      0.33333333       0.00000000       0.00000000 </v>
   <v name="genvec2">      0.00000000       0.33333333       0.00000000 </v>
   <v name="genvec3">      0.00000000       0.00000000       0.33333333 </v>
   <v name="shift">      0.00000000       0.00000000       0.00000000 </v>
  </generation>
  <varray name="kpointlist" >
   <v>       0.00000000       0.00000000       0.00000000 </v>
   <v>       0.33333333       0.00000000       0.00000000 </v>
   <v>       0.00000000       0.33333333       0.00000000 </v>
   <v>       0.33333333       0.33333333       0.00000000 </v>
   <v>       0.00000000       0.33333333       0.33333333 </v>
   <v>       0.33333333       0.33333333       0.33333333 </v>
  </varray>
  <varray name="weights" >
   <v>       0.03703704 </v>
   <v>       0.07407407 </v>
   <v>       0.14814815 </v>
   <v>       0.29629630 </v>
   <v>       0.14814815 </v>
   <v>       0.29629630 </v>
  </varray>
 </kpoints>
 <parameters>
  <separator name="general" >
   <i type="string" name="SYSTEM">FeCoNi</i>
   <i type="logical" name="LCOMPAT"> F  </i>
  </separator>
  <separator name="electronic" >
   <i type="string" name="PREC">accura</i>
   <i name="ENMAX">    520.00000000</i>
   <i name="ENAUG">    544.56500000</i>
   <i name="EDIFF">      0.00000200</i>
   <i type="int" name="IALGO">    68</i>
   <i type="int" name="IWAVPR">    11</i>
   <i type="int" name="NBANDS">   430</i>
   <i type="int" name="NBANDSLOW">    -1</i>
   <i type="int" name="NBANDSHIGH">    -1</i>
   <i name="NELECT">    486.00000000</i>
   <i type="int" name="TURBO">     0</i>
   <i type="int" name="IRESTART">     0</i>
   <i type="int" name="NREBOOT">     0</i>
   <i type="int" name="NMIN">     0</i>
   <i name="EREF">      0.00000000</i>
   <separator name="electronic smearing" >
    <i type="int" name="ISMEAR">     1</i>
    <i name="SIGMA">      0.20000000</i>
    <i name="KSPACING">      0.50000000</i>
    <i type="logical" name="KGAMMA"> T  </i>
    <i type="logical" name="KBLOWUP"> T  </i>
   </separator>
   <separator name="electronic projectors" >
    <i type="logical" name="LREAL"> T  </i>
    <v name="ROPT">     -0.00025000     -0.00025000     -0.00025000</v>
    <i type="int" name="LMAXPAW">  -100</i>
    <i type="int" name="LMAXMIX">     2</i>
    <i type="logical" name="NLSPLINE"> F  </i>
   </separator>
   <separator name="electronic startup" >
    <i type="int" name="ISTART">     0</i>
    <i type="int" name="ICHARG">     2</i>
    <i type="int" name="INIWAV">     1</i>
   </separator>
   <separator name="electronic spin" >
    <i type="int" name="ISPIN">     2</i>
    <i type="logical" name="LNONCOLLINEAR"> F  </i>
    <v name="MAGMOM">      5.00000000      5.00000000      5.00000000      5.00000000      5.00000000      5.00000000      5.00000000      5.00000000      5.00000000      5.00000000      5.00000000      5.00000000      5.00000000      5.00000000      5.00000000      5.00000000      5.00000000      5.00000000      5.00000000      5.00000000
      5.00000000      5.00000000      5.00000000      5.00000000      5.00000000      5.00000000      5.00000000      5.00000000      5.00000000      5.00000000      5.00000000      5.00000000      5.00000000      5.00000000      5.00000000      5.00000000      5.00000000      5.00000000      5.00000000      5.00000000
      5.00000000      5.00000000      5.00000000      5.00000000      5.00000000      5.00000000      5.00000000      5.00000000      5.00000000      5.00000000      5.00000000      5.00000000      5.00000000      5.00000000</v>
    <i name="NUPDOWN">     -1.00000000</i>
    <i type="logical" name="LSORBIT"> F  </i>
    <v name="SAXIS">      0.00000000      0.00000000      1.00000000</v>
    <i type="logical" name="LSPIRAL"> F  </i>
    <v name="QSPIRAL">      0.00000000      0.00000000      0.00000000</v>
    <i type="logical" name="LZEROZ"> F  </i>
   </separator>
   <separator name="electronic exchange-correlation" >
    <i type="logical" name="LASPH"> F  </i>
    <i type="logical" name="LMETAGGA"> F  </i>
   </separator>
   <separator name="electronic convergence" >
    <i type="int" name="NELM">   100</i>
    <i type="int" name="NELMDL">    -5</i>
    <i type="int" name="NELMIN">     2</i>
    <i name="ENINI">    520.00000000</i>
    <separator name="electronic convergence detail" >
     <i type="logical" name="LDIAG"> T  </i>
     <i type="logical" name="LSUBROT"> F  </i>
     <i name="WEIMIN">      0.00100000</i>
     <i name="EBREAK">      0.00000000</i>
     <i name="DEPER">      0.30000000</i>
     <i type="int" name="NRMM">     4</i>
     <i name="TIME">      0.40000000</i>
    </separator>
   </separator>
   <separator name="electronic mixer" >
    <i name="AMIX">      0.40000000</i>
    <i name="BMIX">      1.00000000</i>
    <i name="AMIN">      0.10000000</i>
    <i name="AMIX_MAG">      1.60000000</i>
    <i name="BMIX_MAG">      1.00000000</i>
    <separator name="electronic mixer details" >
     <i type="int" name="IMIX">     4</i>
     <i type="logical" name="MIXFIRST"> F  </i>
     <i type="int" name="MAXMIX">   -45</i>
     <i name="WC">    100.00000000</i>
     <i type="int" name="INIMIX">     1</i>
     <i type="int" name="MIXPRE">     1</i>
     <i type="int" name="MREMOVE">     5</i>
    </separator>
   </separator>
   <separator name="electronic dipolcorrection" >
    <i type="logical" name="LDIPOL"> F  </i>
    <i type="logical" name="LMONO"> F  </i>
    <i type="int" name="IDIPOL">     0</i>
    <i name="EPSILON">      1.00000000</i>
    <v name="DIPOL">   -100.00000000   -100.00000000   -100.00000000</v>
    <i name="EFIELD">      0.00000000</i>
   </separator>
  </separator>
  <separator name="grids" >
   <i type="int" name="NGX">    64</i>
   <i type="int" name="NGY">    64</i>
   <i type="int" name="NGZ">    64</i>
   <i type="int" name="NGXF">   128</i>
   <i type="int" name="NGYF">   128</i>
   <i type="int" name="NGZF">   128</i>
   <i type="logical" name="ADDGRID"> F  </i>
  </separator>
  <separator name="ionic" >
   <i type="int" name="NSW">   200</i>
   <i type="int" name="IBRION">     2</i>
   <i type="int" name="MDALGO">     0</i>
   <i type="int" name="ISIF">     3</i>
   <i name="PSTRESS">      0.00000000</i>
   <i name="EDIFFG">     -0.02000000</i>
   <i type="int" name="NFREE">     1</i>
   <i name="POTIM">      0.50000000</i>
   <i name="SMASS">     -3.00000000</i>
   <i name="SCALEE">      1.00000000</i>
  </separator>
  <separator name="ionic md" >
   <i name="TEBEG">      0.00010000</i>
   <i name="TEEND">      0.00010000</i>
   <i type="int" name="NBLOCK">     1</i>
   <i type="int" name="KBLOCK">   200</i>
   <i type="int" name="NPACO">   256</i>
   <i name="APACO">     10.00000000</i>
  </separator>
  <separator name="symmetry" >
   <i type="int" name="ISYM">     2</i>
   <i name="SYMPREC">      0.00001000</i>
  </separator>
  <separator name="dos" >
   <i type="int" name="LORBIT">     0</i>
   <v name="RWIGS">     -1.00000000     -1.00000000     -1.00000000</v>
   <i type="int" name="NEDOS">   301</i>
   <i name="EMIN">     10.00000000</i>
   <i name="EMAX">    -10.00000000</i>
   <i name="EFERMI">      0.00000000</i>
  </separator>
  <separator name="writing" >
   <i type="int" name="NWRITE">     2</i>
   <i type="logical" name="LWAVE"> F  </i>
   <i type="logical" name="LDOWNSAMPLE"> F  </i>
   <i type="logical" name="LCHARG"> F  </i>
   <i type="logical" name="LPARD"> F  </i>
   <i type="logical" name="LVTOT"> F  </i>
   <i type="logical" name="LVHAR"> F  </i>
   <i type="logical" name="LELF"> F  </i>
   <i type="logical" name="LOPTICS"> F  </i>
   <v name="STM">      0.00000000      0.00000000      0.00000000      0.00000000      0.00000000      0.00000000      0.00000000</v>
  </separator>
  <separator name="performance" >
   <i type="int" name="NPAR">    10</i>
   <i type="int" name="NSIM">     4</i>
   <i type="int" name="NBLK">    -1</i>
   <i type="logical" name="LPLANE"> T  </i>
   <i type="logical" name="LSCALAPACK"> T  </i>
   <i type="logical" name="LSCAAWARE"> F  </i>
   <i type="logical" name="LSCALU"> F  </i>
   <i type="logical" name="LASYNC"> F  </i>
   <i type="logical" name="LORBITALREAL"> F  </i>
  </separator>
  <separator name="miscellaneous" >
   <i type="int" name="IDIOT">     3</i>
   <i type="int" name="PHON_NSTRUCT">    -1</i>
   <i type="logical" name="LMUSIC"> F  </i>
   <v name="POMASS">     55.84700000     58.69000000     58.93300000</v>
   <v name="DARWINR">      0.00000000      0.00000000      0.00000000</v>
   <v name="DARWINV">      1.00000000      1.00000000      1.00000000</v>
   <i type="logical" name="LCORR"> T  </i>
  </separator>
  <i type="logical" name="GGA_COMPAT"> T  </i>
  <i type="logical" name="LBERRY"> F  </i>
  <i type="int" name="ICORELEVEL">     0</i>
  <i type="logical" name="LDAU"> F  </i>
  <i type="int" name="I_CONSTRAINED_M">     0</i>
  <separator name="electronic exchange-correlation" >
   <i type="string" name="GGA">--</i>
   <i type="int" name="VOSKOWN">     0</i>
   <i type="logical" name="LHFCALC"> F  </i>
   <i type="string" name="PRECFOCK"></i>
   <i type="logical" name="LSYMGRAD"> F  </i>
   <i type="logical" name="LHFONE"> F  </i>
   <i type="logical" name="LRHFCALC"> F  </i>
   <i type="logical" name="LTHOMAS"> F  </i>
   <i type="logical" name="LMODELHF"> F  </i>
   <i type="logical" name="LFOCKACE"> F  </i>
   <i name="ENCUT4O">     -1.00000000</i>
   <i type="int" name="EXXOEP">     0</i>
   <i type="int" name="FOURORBIT">     0</i>
   <i name="AEXX">      0.00000000</i>
   <i name="HFALPHA">      0.00000000</i>
   <i name="MCALPHA">      0.00000000</i>
   <i name="ALDAX">      1.00000000</i>
   <i name="AGGAX">      1.00000000</i>
   <i name="ALDAC">      1.00000000</i>
   <i name="AGGAC">      1.00000000</i>
   <i type="int" name="NKREDX">     1</i>
   <i type="int" name="NKREDY">     1</i>
   <i type="int" name="NKREDZ">     1</i>
   <i type="logical" name="SHIFTRED"> F  </i>
   <i type="logical" name="ODDONLY"> F  </i>
   <i type="logical" name="EVENONLY"> F  </i>
   <i type="int" name="LMAXFOCK">     0</i>
   <i type="int" name="NMAXFOCKAE">     0</i>
   <i type="logical" name="LFOCKAEDFT"> F  </i>
   <i name="HFSCREEN">      0.00000000</i>
   <i name="HFSCREENC">      0.00000000</i>
   <i type="int" name="NBANDSGWLOW">     0</i>
  </separator>
  <separator name="vdW DFT" >
   <i type="logical" name="LUSE_VDW"> F  </i>
   <i name="Zab_VDW">     -0.84910000</i>
   <i name="PARAM1">      0.12340000</i>
   <i name="PARAM2">      1.00000000</i>
   <i name="PARAM3">      0.00000000</i>
  </separator>
  <separator name="model GW" >
   <i type="int" name="MODEL_GW">     0</i>
   <i name="MODEL_EPS0">      6.86833488</i>
   <i name="MODEL_ALPHA">      1.00000000</i>
  </separator>
  <separator name="linear response parameters" >
   <i type="logical" name="LEPSILON"> F  </i>
   <i type="logical" name="LRPA"> F  </i>
   <i type="logical" name="LNABLA"> F  </i>
   <i type="logical" name="LVEL"> F  </i>
   <i name="CSHIFT">      0.10000000</i>
   <i name="OMEGAMAX">     -1.00000000</i>
   <i name="DEG_THRESHOLD">      0.00200000</i>
   <i name="RTIME">     -0.10000000</i>
   <i name="WPLASMAI">      0.00000000</i>
   <v name="DFIELD">      0.00000000      0.00000000      0.00000000</v>
   <v name="WPLASMA">      0.00000000      0.00000000      0.00000000      0.00000000      0.00000000      0.00000000      0.00000000      0.00000000      0.00000000</v>
  </separator>
  <separator name="orbital magnetization" >
   <i type="logical" name="NUCIND"> F  </i>
   <v name="MAGPOS">      0.00000000      0.00000000      0.00000000</v>
   <i type="logical" name="LNICSALL"> T  </i>
   <i type="logical" name="ORBITALMAG"> F  </i>
   <i type="logical" name="LMAGBLOCH"> F  </i>
   <i type="logical" name="LCHIMAG"> F  </i>
   <i type="logical" name="LGAUGE"> T  </i>
   <i type="int" name="MAGATOM">     0</i>
   <v name="MAGDIPOL">      0.00000000      0.00000000      0.00000000</v>
   <v name="AVECCONST">      0.00000000      0.00000000      0.00000000</v>
  </separator>
  <separator name="response functions" >
   <i type="logical" name="LFINITE_TEMPERATURE"> F  </i>
   <i type="logical" name="LADDER"> F  </i>
   <i type="logical" name="LRPAFORCE"> F  </i>
   <i type="logical" name="LFXC"> F  </i>
   <i type="logical" name="LHARTREE"> T  </i>
   <i type="int" name="IBSE">     0</i>
   <v type="int" name="KPOINT">    -1     0     0     0</v>
   <i type="logical" name="LTCTC"> F  </i>
   <i type="logical" name="LTCTE"> F  </i>
   <i type="logical" name="LTETE"> F  </i>
   <i type="logical" name="LTRIPLET"> F  </i>
   <i type="logical" name="LFXCEPS"> F  </i>
   <i type="logical" name="LFXHEG"> F  </i>
   <i type="int" name="NATURALO">     2</i>
   <i type="logical" name="LHOLEGF"> F  </i>
   <i type="logical" name="L2ORDER"> F  </i>
   <i type="logical" name="LDMP1"> F  </i>
   <i type="logical" name="LMP2LT"> F  </i>
   <i type="logical" name="LSMP2LT"> F  </i>
   <i type="logical" name="LGWLF"> F  </i>
   <i name="ENCUTGW">     -2.00000000</i>
   <i name="ENCUTGWSOFT">     -2.00000000</i>
   <i name="ENCUTLF">     -1.00000000</i>
   <i type="logical" name="LESF_SPLINES"> F  </i>
   <i type="int" name="LMAXMP2">    -1</i>
   <i name="SCISSOR">      0.00000000</i>
   <i type="int" name="NOMEGA">     0</i>
   <i type="int" name="NOMEGAR">     0</i>
   <i type="int" name="NBANDSGW">    -1</i>
   <i type="int" name="NBANDSO">    -1</i>
   <i type="int" name="NBANDSV">    -1</i>
   <i type="int" name="NELMGW">     1</i>
   <i type="int" name="NELMHF">     1</i>
   <i type="int" name="DIM">     3</i>
   <i type="int" name="IESPILON">     4</i>
   <i type="int" name="ANTIRES">     0</i>
   <i name="OMEGAMAX">    -30.00000000</i>
   <i name="OMEGAMIN">    -30.00000000</i>
   <i name="OMEGATL">   -200.00000000</i>
   <i type="int" name="OMEGAGRID">     0</i>
   <i name="CSHIFT">     -0.10000000</i>
   <i type="logical" name="LSELFENERGY"> F  </i>
   <i type="logical" name="LSPECTRAL"> F  </i>
   <i type="logical" name="LSPECTRALGW"> F  </i>
   <i type="logical" name="LSINGLES"> F  </i>
   <i type="logical" name="LFERMIGW"> F  </i>
   <i type="logical" name="ODDONLYGW"> F  </i>
   <i type="logical" name="EVENONLYGW"> F  </i>
   <i type="int" name="NKREDLFX">     1</i>
   <i type="int" name="NKREDLFY">     1</i>
   <i type="int" name="NKREDLFZ">     1</i>
   <i type="int" name="MAXMEM">  2800</i>
   <i type="int" name="TELESCOPE">     0</i>
   <i type="int" name="NTAUPAR">    -1</i>
   <i type="int" name="NOMEGAPAR">    -1</i>
   <i name="DAMP_NEWTON">      0.80000001</i>
   <i name="LAMBDA">      1.00000000</i>
  </separator>
  <separator name="External order field" >
   <i name="OFIELD_KAPPA">      0.00000000</i>
   <v name="OFIELD_K">      0.00000000      0.00000000      0.00000000</v>
   <i name="OFIELD_Q6_NEAR">      0.00000000</i>
   <i name="OFIELD_Q6_FAR">      0.00000000</i>
   <i name="OFIELD_A">      0.00000000</i>
  </separator>
  <separator name="optional k-points parameters" >
   <i type="int" name="KPOINTS_OPT_MODE">     1</i>
   <i type="logical" name="LKPOINTS_OPT"> F  </i>
  </separator>
 </parameters>
 <atominfo>
  <atoms>      54 </atoms>
  <types>       3 </types>
  <array name="atoms" >
   <dimension dim="1">ion</dimension>
   <field type="string">element</field>
   <field type="int">atomtype</field>
   <set>
    <rc><c>Fe</c><c>   1</c></rc>
    <rc><c>Fe</c><c>   1</c></rc>
    <rc><c>Fe</c><c>   1</c></rc>
    <rc><c>Fe</c><c>   1</c></rc>
    <rc><c>Fe</c><c>   1</c></rc>
    <rc><c>Fe</c><c>   1</c></rc>
    <rc><c>Fe</c><c>   1</c></rc>
    <rc><c>Fe</c><c>   1</c></rc>
    <rc><c>Fe</c><c>   1</c></rc>
    <rc><c>Fe</c><c>   1</c></rc>
    <rc><c>Fe</c><c>   1</c></rc>
    <rc><c>Fe</c><c>   1</c></rc>
    <rc><c>Fe</c><c>   1</c></rc>
    <rc><c>Fe</c><c>   1</c></rc>
    <rc><c>Fe</c><c>   1</c></rc>
    <rc><c>Fe</c><c>   1</c></rc>
    <rc><c>Fe</c><c>   1</c></rc>
    <rc><c>Fe</c><c>   1</c></rc>
    <rc><c>Ni</c><c>   2</c></rc>
    <rc><c>Ni</c><c>   2</c></rc>
    <rc><c>Ni</c><c>   2</c></rc>
    <rc><c>Ni</c><c>   2</c></rc>
    <rc><c>Ni</c><c>   2</c></rc>
    <rc><c>Ni</c><c>   2</c></rc>
    <rc><c>Ni</c><c>   2</c></rc>
    <rc><c>Ni</c><c>   2</c></rc>
    <rc><c>Ni</c><c>   2</c></rc>
    <rc><c>Ni</c><c>   2</c></rc>
    <rc><c>Ni</c><c>   2</c></rc>
    <rc><c>Ni</c><c>   2</c></rc>
    <rc><c>Ni</c><c>   2</c></rc>
    <rc><c>Ni</c><c>   2</c></rc>
    <rc><c>Ni</c><c>   2</c></rc>
    <rc><c>Ni</c><c>   2</c></rc>
    <rc><c>Ni</c><c>   2</c></rc>
    <rc><c>Ni</c><c>   2</c></rc>
    <rc><c>Co</c><c>   3</c></rc>
    <rc><c>Co</c><c>   3</c></rc>
    <rc><c>Co</c><c>   3</c></rc>
    <rc><c>Co</c><c>   3</c></rc>
    <rc><c>Co</c><c>   3</c></rc>
    <rc><c>Co</c><c>   3</c></rc>
    <rc><c>Co</c><c>   3</c></rc>
    <rc><c>Co</c><c>   3</c></rc>
    <rc><c>Co</c><c>   3</c></rc>
    <rc><c>Co</c><c>   3</c></rc>
    <rc><c>Co</c><c>   3</c></rc>
    <rc><c>Co</c><c>   3</c></rc>
    <rc><c>Co</c><c>   3</c></rc>
    <rc><c>Co</c><c>   3</c></rc>
    <rc><c>Co</c><c>   3</c></rc>
    <rc><c>Co</c><c>   3</c></rc>
    <rc><c>Co</c><c>   3</c></rc>
    <rc><c>Co</c><c>   3</c></rc>
   </set>
  </array>
  <array name="atomtypes" >
   <dimension dim="1">type</dimension>
   <field type="int">atomspertype</field>
   <field type="string">element</field>
   <field>mass</field>
   <field>valence</field>
   <field type="string">pseudopotential</field>
   <set>
    <rc><c>  18</c><c>Fe</c><c>     55.84700000</c><c>      8.00000000</c><c>  PAW_PBE Fe 06Sep2000                  </c></rc>
    <rc><c>  18</c><c>Ni</c><c>     58.69000000</c><c>     10.00000000</c><c>  PAW_PBE Ni 02Aug2007                  </c></rc>
    <rc><c>  18</c><c>Co</c><c>     58.93300000</c><c>      9.00000000</c><c>  PAW_PBE Co 02Aug2007                  </c></rc>
   </set>
  </array>
 </atominfo>
 <structure name="initialpos" >
  <crystal>
   <varray name="basis" >
    <v>       8.51853000       0.00000000       0.00000000 </v>
    <v>       0.00000000       8.51853000       0.00000000 </v>
    <v>       0.00000000       0.00000000       8.51853000 </v>
   </varray>
   <i name="volume">    618.15013957 </i>
   <varray name="rec_basis" >
    <v>       0.11739115       0.00000000       0.00000000 </v>
    <v>       0.00000000       0.11739115       0.00000000 </v>
    <v>       0.00000000       0.00000000       0.11739115 </v>
   </varray>
  </crystal>
  <varray name="positions" >
   <v>       0.00000000       0.00000000       0.00000000 </v>
   <v>       0.00000000       0.00000000       0.33333300 </v>
   <v>       0.00000000       0.00000000       0.66666700 </v>
   <v>       0.00000000       0.33333300       0.00000000 </v>
   <v>       0.00000000       0.33333300       0.33333300 </v>
   <v>       0.00000000       0.33333300       0.66666700 </v>
   <v>       0.00000000       0.66666700       0.00000000 </v>
   <v>       0.00000000       0.66666700       0.33333300 </v>
   <v>       0.00000000       0.66666700       0.66666700 </v>
   <v>       0.33333300       0.00000000       0.00000000 </v>
   <v>       0.33333300       0.00000000       0.33333300 </v>
   <v>       0.33333300       0.00000000       0.66666700 </v>
   <v>       0.33333300       0.33333300       0.00000000 </v>
   <v>       0.33333300       0.33333300       0.33333300 </v>
   <v>       0.33333300       0.33333300       0.66666700 </v>
   <v>       0.33333300       0.66666700       0.00000000 </v>
   <v>       0.33333300       0.66666700       0.33333300 </v>
   <v>       0.33333300       0.66666700       0.66666700 </v>
   <v>       0.66666700       0.00000000       0.00000000 </v>
   <v>       0.66666700       0.00000000       0.33333300 </v>
   <v>       0.66666700       0.00000000       0.66666700 </v>
   <v>       0.66666700       0.33333300       0.00000000 </v>
   <v>       0.66666700       0.33333300       0.33333300 </v>
   <v>       0.66666700       0.33333300       0.66666700 </v>
   <v>       0.66666700       0.66666700       0.00000000 </v>
   <v>       0.66666700       0.66666700       0.33333300 </v>
   <v>       0.66666700       0.66666700       0.66666700 </v>
   <v>       0.16666700       0.16666700       0.16666700 </v>
   <v>       0.16666700       0.16666700       0.50000000 </v>
   <v>       0.16666700       0.16666700       0.83333300 </v>
   <v>       0.16666700       0.50000000       0.16666700 </v>
   <v>       0.16666700       0.50000000       0.50000000 </v>
   <v>       0.16666700       0.50000000       0.83333300 </v>
   <v>       0.16666700       0.83333300       0.16666700 </v>
   <v>       0.16666700       0.83333300       0.50000000 </v>
   <v>       0.16666700       0.83333300       0.83333300 </v>
   <v>       0.50000000       0.16666700       0.16666700 </v>
   <v>       0.50000000       0.16666700       0.50000000 </v>
   <v>       0.50000000       0.16666700       0.83333300 </v>
   <v>       0.50000000       0.50000000       0.16666700 </v>
   <v>       0.50000000       0.50000000       0.50000000 </v>
   <v>       0.50000000       0.50000000       0.83333300 </v>
   <v>       0.50000000       0.83333300       0.16666700 </v>
   <v>       0.50000000       0.83333300       0.50000000 </v>
   <v>       0.50000000       0.83333300       0.83333300 </v>
   <v>       0.83333300       0.16666700       0.16666700 </v>
   <v>       0.83333300       0.16666700       0.50000000 </v>
   <v>       0.83333300       0.16666700       0.83333300 </v>
   <v>       0.83333300       0.50000000       0.16666700 </v>
   <v>       0.83333300       0.50000000       0.50000000 </v>
   <v>       0.83333300       0.50000000       0.83333300 </v>
   <v>       0.83333300       0.83333300       0.16666700 </v>
   <v>       0.83333300       0.83333300       0.50000000 </v>
   <v>       0.83333300       0.83333300       0.83333300 </v>
  </varray>
 </structure>
 <calculation>
  <scstep>
   <time name="dav">   27.42   27.49</time>
   <time name="total">   27.56   27.64</time>
   <energy>
    <i name="alphaZ">   2610.39924247 </i>
    <i name="ewald"> -40490.54203675 </i>
    <i name="hartreedc">  -9574.19870004 </i>
    <i name="XCdc">   1104.74508686 </i>
    <i name="pawpsdc">  40138.71227692 </i>
    <i name="pawaedc"> -42428.71661779 </i>
    <i name="eentropy">     -0.00863254 </i>
    <i name="bandstr">   8429.06934980 </i>
    <i name="atom">  44736.26020167 </i>
    <i name="e_fr_energy">   4525.72017060 </i>
    <i name="e_wo_entrp">   4525.72880314 </i>
    <i name="e_0_energy">   4525.72304811 </i>
   </energy>
  </scstep>
  <scstep>
   <time name="dav">   27.24   27.35</time>
   <time name="total">   27.24   27.35</time>
   <energy>
    <i name="e_fr_energy">    432.58056017 </i>
    <i name="e_wo_entrp">    432.59488996 </i>
    <i name="e_0_energy">    432.58533677 </i>
   </energy>
  </scstep>
  <scstep>
   <time name="dav">   27.08   27.19</time>
   <time name="total">   27.08   27.19</time>
   <energy>
    <i name="e_fr_energy">   -288.32457979 </i>
    <i name="e_wo_entrp">   -288.31959622 </i>
    <i name="e_0_energy">   -288.32291860 </i>
   </energy>
  </scstep>
  <scstep>
   <time name="dav">   28.66   28.76</time>
   <time name="total">   28.66   28.77</time>
   <energy>
    <i name="e_fr_energy">   -341.21567986 </i>
    <i name="e_wo_entrp">   -341.21512114 </i>
    <i name="e_0_energy">   -341.21549362 </i>
   </energy>
  </scstep>
  <scstep>
   <time name="dav">   31.03   31.14</time>
   <time name="total">   31.68   31.80</time>
   <energy>
    <i name="e_fr_energy">   -342.04036964 </i>
    <i name="e_wo_entrp">   -342.04005633 </i>
    <i name="e_0_energy">   -342.04026520 </i>
   </energy>
  </scstep>
  <scstep>
   <time name="diag">    3.80    3.81</time>
   <time name="diis">   12.40   12.43</time>
   <time name="orth">    0.91    0.92</time>
   <time name="total">   17.89   17.98</time>
   <energy>
    <i name="e_fr_energy">   -503.28566548 </i>
    <i name="e_wo_entrp">   -503.23330824 </i>
    <i name="e_0_energy">   -503.26821307 </i>
   </energy>
  </scstep>
  <scstep>
   <time name="diag">    3.80    3.81</time>
   <time name="diis">   12.40   12.43</time>
   <time name="orth">    0.91    0.92</time>
   <time name="total">   17.88   17.97</time>
   <energy>
    <i name="e_fr_energy">   -440.50166089 </i>
    <i name="e_wo_entrp">   -440.38241076 </i>
    <i name="e_0_energy">   -440.46191085 </i>
   </energy>
  </scstep>
  <scstep>
   <time name="diag">    3.80    3.80</time>
   <time name="diis">   12.43   12.46</time>
   <time name="orth">    0.91    0.91</time>
   <time name="total">   17.92   18.00</time>
   <energy>
    <i name="e_fr_energy">   -404.07210697 </i>
    <i name="e_wo_entrp">   -404.02124517 </i>
    <i name="e_0_energy">   -404.05515304 </i>
   </energy>
  </scstep>
  <scstep>
   <time name="diag">    3.80    3.81</time>
   <time name="diis">   12.43   12.46</time>
   <time name="orth">    0.91    0.91</time>
   <time name="total">   17.91   18.00</time>
   <energy>
    <i name="e_fr_energy">   -404.61925807 </i>
    <i name="e_wo_entrp">   -404.53076129 </i>
    <i name="e_0_energy">   -404.58975915 </i>
   </energy>
  </scstep>
  <scstep>
   <time name="diag">    3.80    3.81</time>
   <time name="diis">   12.45   12.48</time>
   <time name="orth">    0.91    0.92</time>
   <time name="total">   17.93   18.01</time>
   <energy>
    <i name="e_fr_energy">   -380.00576434 </i>
    <i name="e_wo_entrp">   -379.96268121 </i>
    <i name="e_0_energy">   -379.99140330 </i>
   </energy>
  </scstep>
  <scstep>
   <time name="diag">    3.80    3.81</time>
   <time name="diis">   12.44   12.47</time>
   <time name="orth">    0.91    0.91</time>
   <time name="total">   17.92   18.00</time>
   <energy>
    <i name="e_fr_energy">   -366.66691708 </i>
    <i name="e_wo_entrp">   -366.66883810 </i>
    <i name="e_0_energy">   -366.66755742 </i>
   </energy>
  </scstep>
  <scstep>
   <time name="diag">    3.80    3.81</time>
   <time name="diis">   12.59   12.62</time>
   <time name="orth">    0.92    0.92</time>
   <time name="total">   18.08   18.16</time>
   <energy>
    <i name="e_fr_energy">   -367.31541363 </i>
    <i name="e_wo_entrp">   -367.18440250 </i>
    <i name="e_0_energy">   -367.27174326 </i>
   </energy>
  </scstep>
  <scstep>
   <time name="diag">    3.83    3.84</time>
   <time name="diis">   12.47   12.50</time>
   <time name="orth">    0.92    0.92</time>
   <time name="total">   17.99   18.08</time>
   <energy>
    <i name="e_fr_energy">   -370.16565702 </i>
    <i name="e_wo_entrp">   -370.00075782 </i>
    <i name="e_0_energy">   -370.11069062 </i>
   </energy>
  </scstep>
  <scstep>
   <time name="diag">    3.83    3.84</time>
   <time name="diis">   12.59   12.62</time>
   <time name="orth">    0.91    0.92</time>
   <time name="total">   18.10   18.19</time>
   <energy>
    <i name="e_fr_energy">   -370.12356996 </i>
    <i name="e_wo_entrp">   -369.95148116 </i>
    <i name="e_0_energy">   -370.06620703 </i>
   </energy>
  </scstep>
  <scstep>
   <time name="diag">    3.82    3.82</time>
   <time name="diis">   12.54   12.57</time>
   <time name="orth">    0.92    0.92</time>
   <time name="total">   18.04   18.12</time>
   <energy>
    <i name="e_fr_energy">   -369.99385699 </i>
    <i name="e_wo_entrp">   -369.81209966 </i>
    <i name="e_0_energy">   -369.93327122 </i>
   </energy>
  </scstep>
  <scstep>
   <time name="diag">    3.81    3.82</time>
   <time name="diis">   12.66   12.69</time>
   <time name="orth">    0.92    0.92</time>
   <time name="total">   18.16   18.25</time>
   <energy>
    <i name="e_fr_energy">   -369.99335414 </i>
    <i name="e_wo_entrp">   -369.82027696 </i>
    <i name="e_0_energy">   -369.93566175 </i>
   </energy>
  </scstep>
  <scstep>
   <time name="diag">    3.81    3.82</time>
   <time name="diis">   12.77   12.80</time>
   <time name="orth">    0.91    0.92</time>
   <time name="total">   18.27   18.35</time>
   <energy>
    <i name="e_fr_energy">   -370.00058611 </i>
    <i name="e_wo_entrp">   -369.83014104 </i>
    <i name="e_0_energy">   -369.94377109 </i>
   </energy>
  </scstep>
  <scstep>
   <time name="diag">    3.81    3.82</time>
   <time name="diis">   13.21   13.24</time>
   <time name="orth">    0.92    0.92</time>
   <time name="total">   18.70   18.79</time>
   <energy>
    <i name="e_fr_energy">   -369.99526910 </i>
    <i name="e_wo_entrp">   -369.82282117 </i>
    <i name="e_0_energy">   -369.93778646 </i>
   </energy>
  </scstep>
  <scstep>
   <time name="diag">    3.82    3.83</time>
   <time name="diis">   13.39   13.42</time>
   <time name="orth">    0.92    0.92</time>
   <time name="total">   18.90   18.98</time>
   <energy>
    <i name="e_fr_energy">   -369.99476663 </i>
    <i name="e_wo_entrp">   -369.82509948 </i>
    <i name="e_0_energy">   -369.93821091 </i>
   </energy>
  </scstep>
  <scstep>
   <time name="diag">    3.81    3.82</time>
   <time name="diis">   13.80   13.83</time>
   <time name="orth">    0.92    0.92</time>
   <time name="total">   19.30   19.39</time>
   <energy>
    <i name="e_fr_energy">   -369.99489436 </i>
    <i name="e_wo_entrp">   -369.82446004 </i>
    <i name="e_0_energy">   -369.93808292 </i>
   </energy>
  </scstep>
  <scstep>
   <time name="diag">    3.80    3.81</time>
   <time name="diis">   14.39   14.43</time>
   <time name="orth">    0.91    0.92</time>
   <time name="total">   19.88   19.97</time>
   <energy>
    <i name="e_fr_energy">   -369.99464844 </i>
    <i name="e_wo_entrp">   -369.82286806 </i>
    <i name="e_0_energy">   -369.93738831 </i>
   </energy>
  </scstep>
  <scstep>
   <time name="diag">    3.77    3.78</time>
   <time name="diis">   14.69   14.73</time>
   <time name="orth">    0.91    0.92</time>
   <time name="total">   20.16   20.25</time>
   <energy>
    <i name="e_fr_energy">   -369.99467044 </i>
    <i name="e_wo_entrp">   -369.82183259 </i>
    <i name="e_0_energy">   -369.93705783 </i>
   </energy>
  </scstep>
  <scstep>
   <time name="diag">    3.78    3.79</time>
   <time name="diis">   13.78   13.81</time>
   <time name="orth">    0.91    0.91</time>
   <time name="total">   19.24   19.33</time>
   <energy>
    <i name="e_fr_energy">   -369.99466342 </i>
    <i name="e_wo_entrp">   -369.82124343 </i>
    <i name="e_0_energy">   -369.93685676 </i>
   </energy>
  </scstep>
  <scstep>
   <time name="diag">    3.77    3.78</time>
   <time name="diis">   11.77   11.80</time>
   <time name="orth">    0.91    0.92</time>
   <time name="total">   17.23   17.31</time>
   <energy>
    <i name="e_fr_energy">   -369.99466560 </i>
    <i name="e_wo_entrp">   -369.82141335 </i>
    <i name="e_0_energy">   -369.93691485 </i>
   </energy>
  </scstep>
  <scstep>
   <time name="diag">    3.77    3.78</time>
   <time name="diis">    9.13    9.15</time>
   <time name="orth">    0.91    0.91</time>
   <time name="total">   13.96   14.03</time>
   <energy>
    <i name="alphaZ">   2610.39924247 </i>
    <i name="ewald"> -40490.54203675 </i>
    <i name="hartreedc">  -8597.15608782 </i>
    <i name="XCdc">    930.58147682 </i>
    <i name="pawpsdc">  49106.41533316 </i>
    <i name="pawaedc"> -51460.94455547 </i>
    <i name="eentropy">     -0.17317028 </i>
    <i name="bandstr">   2795.16492981 </i>
    <i name="atom">  44736.26020167 </i>
    <i name="e_fr_energy">   -369.99466639 </i>
    <i name="e_wo_entrp">   -369.82149611 </i>
    <i name="e_0_energy">   -369.93694296 </i>
   </energy>
  </scstep>
  <structure>
   <crystal>
    <varray name="basis" >
     <v>       8.51853000       0.00000000       0.00000000 </v>
     <v>       0.00000000       8.51853000       0.00000000 </v>
     <v>       0.00000000       0.00000000       8.51853000 </v>
    </varray>
    <i name="volume">    618.15013957 </i>
    <varray name="rec_basis" >
     <v>       0.11739115       0.00000000       0.00000000 </v>
     <v>       0.00000000       0.11739115       0.00000000 </v>
     <v>       0.00000000       0.00000000       0.11739115 </v>
    </varray>
   </crystal>
   <varray name="positions" >
    <v>       0.00000000       0.00000000       0.00000000 </v>
    <v>       0.00000000       0.00000000       0.33333300 </v>
    <v>       0.00000000       0.00000000       0.66666700 </v>
    <v>       0.00000000       0.33333300       0.00000000 </v>
    <v>       0.00000000       0.33333300       0.33333300 </v>
    <v>       0.00000000       0.33333300       0.66666700 </v>
    <v>       0.00000000       0.66666700       0.00000000 </v>
    <v>       0.00000000       0.66666700       0.33333300 </v>
    <v>       0.00000000       0.66666700       0.66666700 </v>
    <v>       0.33333300       0.00000000       0.00000000 </v>
    <v>       0.33333300       0.00000000       0.33333300 </v>
    <v>       0.33333300       0.00000000       0.66666700 </v>
    <v>       0.33333300       0.33333300       0.00000000 </v>
    <v>       0.33333300       0.33333300       0.33333300 </v>
    <v>       0.33333300       0.33333300       0.66666700 </v>
    <v>       0.33333300       0.66666700       0.00000000 </v>
    <v>       0.33333300       0.66666700       0.33333300 </v>
    <v>       0.33333300       0.66666700       0.66666700 </v>
    <v>       0.66666700       0.00000000       0.00000000 </v>
    <v>       0.66666700       0.00000000       0.33333300 </v>
    <v>       0.66666700       0.00000000       0.66666700 </v>
    <v>       0.66666700       0.33333300       0.00000000 </v>
    <v>       0.66666700       0.33333300       0.33333300 </v>
    <v>       0.66666700       0.33333300       0.66666700 </v>
    <v>       0.66666700       0.66666700       0.00000000 </v>
    <v>       0.66666700       0.66666700       0.33333300 </v>
    <v>       0.66666700       0.66666700       0.66666700 </v>
    <v>       0.16666700       0.16666700       0.16666700 </v>
    <v>       0.16666700       0.16666700       0.50000000 </v>
    <v>       0.16666700       0.16666700       0.83333300 </v>
    <v>       0.16666700       0.50000000       0.16666700 </v>
    <v>       0.16666700       0.50000000       0.50000000 </v>
    <v>       0.16666700       0.50000000       0.83333300 </v>
    <v>       0.16666700       0.83333300       0.16666700 </v>
    <v>       0.16666700       0.83333300       0.50000000 </v>
    <v>       0.16666700       0.83333300       0.83333300 </v>
    <v>       0.50000000       0.16666700       0.16666700 </v>
    <v>       0.50000000       0.16666700       0.50000000 </v>
    <v>       0.50000000       0.16666700       0.83333300 </v>
    <v>       0.50000000       0.50000000       0.16666700 </v>
    <v>       0.50000000       0.50000000       0.50000000 </v>
    <v>       0.50000000       0.50000000       0.83333300 </v>
    <v>       0.50000000       0.83333300       0.16666700 </v>
    <v>       0.50000000       0.83333300       0.50000000 </v>
    <v>       0.50000000       0.83333300       0.83333300 </v>
    <v>       0.83333300       0.16666700       0.16666700 </v>
    <v>       0.83333300       0.16666700       0.50000000 </v>
    <v>       0.83333300       0.16666700       0.83333300 </v>
    <v>       0.83333300       0.50000000       0.16666700 </v>
    <v>       0.83333300       0.50000000       0.50000000 </v>
    <v>       0.83333300       0.50000000       0.83333300 </v>
    <v>       0.83333300       0.83333300       0.16666700 </v>
    <v>       0.83333300       0.83333300       0.50000000 </v>
    <v>       0.83333300       0.83333300       0.83333300 </v>
   </varray>
  </structure>
  <varray name="forces" >
   <v>      -0.77686763       0.00000000      -0.00000000 </v>
   <v>      -0.77686763       0.00000000       0.00000000 </v>
   <v>      -0.77686763       0.00000000      -0.00000000 </v>
   <v>      -0.77686763      -0.00000000       0.00000000 </v>
   <v>      -0.77686763      -0.00000000      -0.00000000 </v>
   <v>      -0.77686763       0.00000000       0.00000000 </v>
   <v>      -0.77686763      -0.00000000       0.00000000 </v>
   <v>      -0.77686763      -0.00000000      -0.00000000 </v>
   <v>      -0.77686763      -0.00000000       0.00000000 </v>
   <v>       0.77686763       0.00000000      -0.00000000 </v>
   <v>       0.77686763       0.00000000       0.00000000 </v>
   <v>       0.77686763       0.00000000      -0.00000000 </v>
   <v>       0.77686763      -0.00000000       0.00000000 </v>
   <v>       0.77686763      -0.00000000      -0.00000000 </v>
   <v>       0.77686763       0.00000000       0.00000000 </v>
   <v>       0.77686763      -0.00000000       0.00000000 </v>
   <v>       0.77686763      -0.00000000      -0.00000000 </v>
   <v>       0.77686763      -0.00000000      -0.00000000 </v>
   <v>       0.00000000       0.00000000       0.00000000 </v>
   <v>       0.00000000       0.00000000      -0.00000000 </v>
   <v>       0.00000000       0.00000000       0.00000000 </v>
   <v>       0.00000000       0.00000000       0.00000000 </v>
   <v>       0.00000000       0.00000000      -0.00000000 </v>
   <v>       0.00000000       0.00000000       0.00000000 </v>
   <v>       0.00000000      -0.00000000       0.00000000 </v>
   <v>       0.00000000      -0.00000000       0.00000000 </v>
   <v>       0.00000000       0.00000000      -0.00000000 </v>
   <v>       0.00000000       0.00000000      -0.00000000 </v>
   <v>       0.00000000       0.00000000      -0.00000000 </v>
   <v>       0.00000000       0.00000000       0.00000000 </v>
   <v>       0.00000000       0.00000000      -0.00000000 </v>
   <v>       0.00000000       0.00000000      -0.00000000 </v>
   <v>       0.00000000      -0.00000000      -0.00000000 </v>
   <v>       0.00000000      -0.00000000      -0.00000000 </v>
   <v>       0.00000000      -0.00000000      -0.00000000 </v>
   <v>       0.00000000      -0.00000000       0.00000000 </v>
   <v>      -0.55009795       0.00000000      -0.00000000 </v>
   <v>      -0.55009795       0.00000000       0.00000000 </v>
   <v>      -0.55009795      -0.00000000      -0.00000000 </v>
   <v>      -0.55009795      -0.00000000       0.00000000 </v>
   <v>      -0.55009795       0.00000000      -0.00000000 </v>
   <v>      -0.55009795      -0.00000000       0.00000000 </v>
   <v>      -0.55009795      -0.00000000      -0.00000000 </v>
   <v>      -0.55009795      -0.00000000      -0.00000000 </v>
   <v>      -0.55009795      -0.00000000       0.00000000 </v>
   <v>       0.55009795      -0.00000000      -0.00000000 </v>
   <v>       0.55009795       0.00000000      -0.00000000 </v>
   <v>       0.55009795      -0.00000000       0.00000000 </v>
   <v>       0.55009795      -0.00000000      -0.00000000 </v>
   <v>       0.55009795       0.00000000      -0.00000000 </v>
   <v>       0.55009795      -0.00000000       0.00000000 </v>
   <v>       0.55009795      -0.00000000      -0.00000000 </v>
   <v>       0.55009795       0.00000000      -0.00000000 </v>
   <v>       0.55009795       0.00000000       0.00000000 </v>
  </varray>
  <varray name="stress" >
   <v>     -43.86944120      -0.00000000       0.00000000 </v>
   <v>      -0.00000000      -6.89888615       0.00000000 </v>
   <v>       0.00000000       0.00000000      -6.89888615 </v>
  </varray>
  <energy>
   <i name="e_fr_energy">   -369.99466639 </i>
   <i name="e_wo_entrp">   -369.82149611 </i>
   <i name="e_0_energy">   -369.93694296 </i>
  </energy>
  <time name="totalsc">  534.45  536.80</time>
 </calculation>
 <calculation>
  <scstep>
   <time name="dav">   31.63   31.70</time>
   <time name="total">   32.39   32.47</time>
   <energy>
    <i name="alphaZ">   2663.12775811 </i>
    <i name="ewald"> -40777.39593857 </i>
    <i name="hartreedc">  -8638.38781261 </i>
    <i name="XCdc">    944.40368402 </i>
    <i name="pawpsdc">  49105.93031875 </i>
    <i name="pawaedc"> -51460.46100497 </i>
    <i name="eentropy">     -0.20024863 </i>
    <i name="bandstr">   3054.06089270 </i>
    <i name="atom">  44736.26020167 </i>
    <i name="e_fr_energy">   -372.66214953 </i>
    <i name="e_wo_entrp">   -372.46190090 </i>
    <i name="e_0_energy">   -372.59539998 </i>
   </energy>
  </scstep>
  <scstep>
   <time name="diag">    3.81    3.82</time>
   <time name="diis">   12.52   12.55</time>
   <time name="orth">    0.91    0.92</time>
   <time name="total">   18.01   18.10</time>
   <energy>
    <i name="e_fr_energy">   -392.48998850 </i>
    <i name="e_wo_entrp">   -392.55498367 </i>
    <i name="e_0_energy">   -392.51165356 </i>
   </energy>
  </scstep>
  <scstep>
   <time name="diag">    3.81    3.81</time>
   <time name="diis">   12.51   12.54</time>
   <time name="orth">    0.91    0.92</time>
   <time name="total">   18.00   18.09</time>
   <energy>
    <i name="e_fr_energy">   -373.66991994 </i>
    <i name="e_wo_entrp">   -373.72836008 </i>
    <i name="e_0_energy">   -373.68939999 </i>
   </energy>
  </scstep>
  <scstep>
   <time name="diag">    3.80    3.81</time>
   <time name="diis">   12.49   12.52</time>
   <time name="orth">    0.91    0.92</time>
   <time name="total">   17.98   18.06</time>
   <energy>
    <i name="e_fr_energy">   -372.38384529 </i>
    <i name="e_wo_entrp">   -372.43951664 </i>
    <i name="e_0_energy">   -372.40240241 </i>
   </energy>
  </scstep>
  <scstep>
   <time name="diag">    3.80    3.81</time>
   <time name="diis">   12.47   12.50</time>
   <time name="orth">    0.91    0.92</time>
   <time name="total">   17.95   18.03</time>
   <energy>
    <i name="e_fr_energy">   -371.79867262 </i>
    <i name="e_wo_entrp">   -371.73348382 </i>
    <i name="e_0_energy">   -371.77694302 </i>
   </energy>
  </scstep>
  <scstep>
   <time name="diag">    3.80    3.81</time>
   <time name="diis">   12.52   12.55</time>
   <time name="orth">    0.91    0.91</time>
   <time name="total">   18.01   18.10</time>
   <energy>
    <i name="e_fr_energy">   -370.80008513 </i>
    <i name="e_wo_entrp">   -370.75341255 </i>
    <i name="e_0_energy">   -370.78452760 </i>
   </energy>
  </scstep>
  <scstep>
   <time name="diag">    3.80    3.81</time>
   <time name="diis">   12.61   12.64</time>
   <time name="orth">    0.91    0.92</time>
   <time name="total">   18.09   18.18</time>
   <energy>
    <i name="e_fr_energy">   -370.71095321 </i>
    <i name="e_wo_entrp">   -370.64095408 </i>
    <i name="e_0_energy">   -370.68762017 </i>
   </energy>
  </scstep>
  <scstep>
   <time name="diag">    3.80    3.81</time>
   <time name="diis">   12.63   12.66</time>
   <time name="orth">    0.91    0.92</time>
   <time name="total">   18.11   18.20</time>
   <energy>
    <i name="e_fr_energy">   -370.69648147 </i>
    <i name="e_wo_entrp">   -370.61960176 </i>
    <i name="e_0_energy">   -370.67085490 </i>
   </energy>
  </scstep>
  <scstep>
   <time name="diag">    3.81    3.81</time>
   <time name="diis">   13.49   13.52</time>
   <time name="orth">    0.91    0.92</time>
   <time name="total">   18.98   19.07</time>
   <energy>
    <i name="e_fr_energy">   -370.69149165 </i>
    <i name="e_wo_entrp">   -370.61726132 </i>
    <i name="e_0_energy">   -370.66674821 </i>
   </energy>
  </scstep>
  <scstep>
   <time name="diag">    3.80    3.81</time>
   <time name="diis">   13.01   13.04</time>
   <time name="orth">    0.91    0.92</time>
   <time name="total">   18.49   18.58</time>
   <energy>
    <i name="e_fr_energy">   -370.69144851 </i>
    <i name="e_wo_entrp">   -370.61512506 </i>
    <i name="e_0_energy">   -370.66600736 </i>
   </energy>
  </scstep>
  <scstep>
   <time name="diag">    3.80    3.81</time>
   <time name="diis">   14.61   14.65</time>
   <time name="orth">    0.91    0.92</time>
   <time name="total">   20.10   20.18</time>
   <energy>
    <i name="e_fr_energy">   -370.69155561 </i>
    <i name="e_wo_entrp">   -370.61650928 </i>
    <i name="e_0_energy">   -370.66654017 </i>
   </energy>
  </scstep>
  <scstep>
   <time name="diag">    3.78    3.79</time>
   <time name="diis">   14.31   14.35</time>
   <time name="orth">    0.91    0.92</time>
   <time name="total">   19.78   19.87</time>
   <energy>
    <i name="e_fr_energy">   -370.69156229 </i>
    <i name="e_wo_entrp">   -370.61700910 </i>
    <i name="e_0_energy">   -370.66671123 </i>
   </energy>
  </scstep>
  <scstep>
   <time name="diag">    3.78    3.79</time>
   <time name="diis">   13.76   13.79</time>
   <time name="orth">    0.91    0.92</time>
   <time name="total">   19.23   19.32</time>
   <energy>
    <i name="e_fr_energy">   -370.69152931 </i>
    <i name="e_wo_entrp">   -370.61677521 </i>
    <i name="e_0_energy">   -370.66661128 </i>
   </energy>
  </scstep>
  <scstep>
   <time name="diag">    3.78    3.79</time>
   <time name="diis">   11.41   11.44</time>
   <time name="orth">    0.91    0.92</time>
   <time name="total">   16.87   16.93</time>
   <energy>
    <i name="e_fr_energy">   -370.69152474 </i>
    <i name="e_wo_entrp">   -370.61672131 </i>
    <i name="e_0_energy">   -370.66659026 </i>
   </energy>
  </scstep>
  <scstep>
   <time name="diag">    3.80    3.81</time>
   <time name="diis">    9.25    9.27</time>
   <time name="orth">    0.91    0.92</time>
   <time name="total">   14.73   14.81</time>
   <energy>
    <i name="e_fr_energy">   -370.69152205 </i>
    <i name="e_wo_entrp">   -370.61653616 </i>
    <i name="e_0_energy">   -370.66652675 </i>
   </energy>
  </scstep>
  <scstep>
   <time name="diag">    3.79    3.80</time>
   <time name="diis">    9.02    9.04</time>
   <time name="orth">    0.91    0.92</time>
   <time name="total">   13.87   13.94</time>
   <energy>
    <i name="alphaZ">   2663.12775811 </i>
    <i name="ewald"> -40777.39593857 </i>
    <i name="hartreedc">  -8460.50205180 </i>
    <i name="XCdc">    933.35187514 </i>
    <i name="pawpsdc">  49663.91628327 </i>
    <i name="pawaedc"> -52022.63274877 </i>
    <i name="eentropy">     -0.07500144 </i>
    <i name="bandstr">   2893.25810015 </i>
    <i name="atom">  44736.26020167 </i>
    <i name="e_fr_energy">   -370.69152224 </i>
    <i name="e_wo_entrp">   -370.61652080 </i>
    <i name="e_0_energy">   -370.66652176 </i>
   </energy>
  </scstep>
  <structure>
   <crystal>
    <varray name="basis" >
     <v>       8.38972059      -0.00000000       0.00000000 </v>
     <v>      -0.00000000       8.49827350       0.00000000 </v>
     <v>       0.00000000       0.00000000       8.49827350 </v>
    </varray>
    <i name="volume">    605.91109501 </i>
    <varray name="rec_basis" >
     <v>       0.11919348       0.00000000      -0.00000000 </v>
     <v>       0.00000000       0.11767096      -0.00000000 </v>
     <v>      -0.00000000      -0.00000000       0.11767096 </v>
    </varray>
   </crystal>
   <varray name="positions" >
    <v>      -0.00439960       0.00000000      -0.00000000 </v>
    <v>      -0.00439960       0.00000000       0.33333300 </v>
    <v>      -0.00439960       0.00000000       0.66666700 </v>
    <v>      -0.00439960       0.33333300       0.00000000 </v>
    <v>      -0.00439960       0.33333300       0.33333300 </v>
    <v>      -0.00439960       0.33333300       0.66666700 </v>
    <v>      -0.00439960       0.66666700       0.00000000 </v>
    <v>      -0.00439960       0.66666700       0.33333300 </v>
    <v>      -0.00439960       0.66666700       0.66666700 </v>
    <v>       0.33773260       0.00000000      -0.00000000 </v>
    <v>       0.33773260       0.00000000       0.33333300 </v>
    <v>       0.33773260       0.00000000       0.66666700 </v>
    <v>       0.33773260       0.33333300       0.00000000 </v>
    <v>       0.33773260       0.33333300       0.33333300 </v>
    <v>       0.33773260       0.33333300       0.66666700 </v>
    <v>       0.33773260       0.66666700       0.00000000 </v>
    <v>       0.33773260       0.66666700       0.33333300 </v>
    <v>       0.33773260       0.66666700       0.66666700 </v>
    <v>       0.66666700       0.00000000       0.00000000 </v>
    <v>       0.66666700       0.00000000       0.33333300 </v>
    <v>       0.66666700       0.00000000       0.66666700 </v>
    <v>       0.66666700       0.33333300       0.00000000 </v>
    <v>       0.66666700       0.33333300       0.33333300 </v>
    <v>       0.66666700       0.33333300       0.66666700 </v>
    <v>       0.66666700       0.66666700       0.00000000 </v>
    <v>       0.66666700       0.66666700       0.33333300 </v>
    <v>       0.66666700       0.66666700       0.66666700 </v>
    <v>       0.16666700       0.16666700       0.16666700 </v>
    <v>       0.16666700       0.16666700       0.50000000 </v>
    <v>       0.16666700       0.16666700       0.83333300 </v>
    <v>       0.16666700       0.50000000       0.16666700 </v>
    <v>       0.16666700       0.50000000       0.50000000 </v>
    <v>       0.16666700       0.50000000       0.83333300 </v>
    <v>       0.16666700       0.83333300       0.16666700 </v>
    <v>       0.16666700       0.83333300       0.50000000 </v>
    <v>       0.16666700       0.83333300       0.83333300 </v>
    <v>       0.49688465       0.16666700       0.16666700 </v>
    <v>       0.49688465       0.16666700       0.50000000 </v>
    <v>       0.49688465       0.16666700       0.83333300 </v>
    <v>       0.49688465       0.50000000       0.16666700 </v>
    <v>       0.49688465       0.50000000       0.50000000 </v>
    <v>       0.49688465       0.50000000       0.83333300 </v>
    <v>       0.49688465       0.83333300       0.16666700 </v>
    <v>       0.49688465       0.83333300       0.50000000 </v>
    <v>       0.49688465       0.83333300       0.83333300 </v>
    <v>       0.83644835       0.16666700       0.16666700 </v>
    <v>       0.83644835       0.16666700       0.50000000 </v>
    <v>       0.83644835       0.16666700       0.83333300 </v>
    <v>       0.83644835       0.50000000       0.16666700 </v>
    <v>       0.83644835       0.50000000       0.50000000 </v>
    <v>       0.83644835       0.50000000       0.83333300 </v>
    <v>       0.83644835       0.83333300       0.16666700 </v>
    <v>       0.83644835       0.83333300       0.50000000 </v>
    <v>       0.83644835       0.83333300       0.83333300 </v>
   </varray>
  </structure>
  <varray name="forces" >
   <v>      -0.32268111       0.00000000      -0.00000000 </v>
   <v>      -0.32268111       0.00000000       0.00000000 </v>
   <v>      -0.32268111       0.00000000      -0.00000000 </v>
   <v>      -0.32268111       0.00000000      -0.00000000 </v>
   <v>      -0.32268111       0.00000000       0.00000000 </v>
   <v>      -0.32268111       0.00000000      -0.00000000 </v>
   <v>      -0.32268111       0.00000000      -0.00000000 </v>
   <v>      -0.32268111       0.00000000       0.00000000 </v>
   <v>      -0.32268111       0.00000000      -0.00000000 </v>
   <v>       0.32268111      -0.00000000      -0.00000000 </v>
   <v>       0.32268111      -0.00000000       0.00000000 </v>
   <v>       0.32268111      -0.00000000      -0.00000000 </v>
   <v>       0.32268111      -0.00000000      -0.00000000 </v>
   <v>       0.32268111      -0.00000000       0.00000000 </v>
   <v>       0.32268111      -0.00000000       0.00000000 </v>
   <v>       0.32268111      -0.00000000      -0.00000000 </v>
   <v>       0.32268111      -0.00000000       0.00000000 </v>
   <v>       0.32268111      -0.00000000      -0.00000000 </v>
   <v>      -0.00000000       0.00000000      -0.00000000 </v>
   <v>      -0.00000000      -0.00000000       0.00000000 </v>
   <v>      -0.00000000      -0.00000000       0.00000000 </v>
   <v>      -0.00000000       0.00000000      -0.00000000 </v>
   <v>      -0.00000000      -0.00000000       0.00000000 </v>
   <v>      -0.00000000       0.00000000      -0.00000000 </v>
   <v>      -0.00000000       0.00000000      -0.00000000 </v>
   <v>      -0.00000000       0.00000000       0.00000000 </v>
   <v>      -0.00000000       0.00000000       0.00000000 </v>
   <v>      -0.00000000      -0.00000000       0.00000000 </v>
   <v>      -0.00000000      -0.00000000      -0.00000000 </v>
   <v>      -0.00000000      -0.00000000       0.00000000 </v>
   <v>      -0.00000000       0.00000000      -0.00000000 </v>
   <v>      -0.00000000       0.00000000      -0.00000000 </v>
   <v>      -0.00000000       0.00000000       0.00000000 </v>
   <v>      -0.00000000      -0.00000000      -0.00000000 </v>
   <v>      -0.00000000      -0.00000000      -0.00000000 </v>
   <v>      -0.00000000       0.00000000       0.00000000 </v>
   <v>      -0.26340035       0.00000000      -0.00000000 </v>
   <v>      -0.26340035       0.00000000       0.00000000 </v>
   <v>      -0.26340035       0.00000000      -0.00000000 </v>
   <v>      -0.26340035       0.00000000       0.00000000 </v>
   <v>      -0.26340035       0.00000000       0.00000000 </v>
   <v>      -0.26340035       0.00000000       0.00000000 </v>
   <v>      -0.26340035       0.00000000       0.00000000 </v>
   <v>      -0.26340035       0.00000000       0.00000000 </v>
   <v>      -0.26340035       0.00000000      -0.00000000 </v>
   <v>       0.26340035      -0.00000000       0.00000000 </v>
   <v>       0.26340035      -0.00000000       0.00000000 </v>
   <v>       0.26340035      -0.00000000       0.00000000 </v>
   <v>       0.26340035      -0.00000000      -0.00000000 </v>
   <v>       0.26340035      -0.00000000       0.00000000 </v>
   <v>       0.26340035      -0.00000000      -0.00000000 </v>
   <v>       0.26340035      -0.00000000       0.00000000 </v>
   <v>       0.26340035      -0.00000000       0.00000000 </v>
   <v>       0.26340035      -0.00000000       0.00000000 </v>
  </varray>
  <varray name="stress" >
   <v>      -3.59740745      -0.00000000       0.00000000 </v>
   <v>       0.00000000      31.80232719       0.00000000 </v>
   <v>       0.00000000       0.00000000      31.80232719 </v>
  </varray>
  <energy>
   <i name="e_fr_energy">   -370.69152224 </i>
   <i name="e_wo_entrp">   -370.61652080 </i>
   <i name="e_0_energy">   -370.66652176 </i>
  </energy>
  <time name="totalsc">  329.96  331.44</time>
 </calculation>
 <calculation>
  <scstep>
   <time name="dav">   31.69   31.76</time>
   <time name="total">   32.44   32.53</time>
   <energy>
    <i name="alphaZ">   2682.01219352 </i>
    <i name="ewald"> -40873.23480044 </i>
    <i name="hartreedc">  -8479.94178469 </i>
    <i name="XCdc">    938.17628711 </i>
    <i name="pawpsdc">  49663.62115590 </i>
    <i name="pawaedc"> -52022.34012101 </i>
    <i name="eentropy">     -0.08455013 </i>
    <i name="bandstr">   2984.54699551 </i>
    <i name="atom">  44736.26020167 </i>
    <i name="e_fr_energy">   -370.98442257 </i>
    <i name="e_wo_entrp">   -370.89987244 </i>
    <i name="e_0_energy">   -370.95623919 </i>
   </energy>
  </scstep>
  <scstep>
   <time name="diag">    3.80    3.81</time>
   <time name="diis">   12.55   12.58</time>
   <time name="orth">    0.91    0.92</time>
   <time name="total">   18.04   18.13</time>
   <energy>
    <i name="e_fr_energy">   -373.64001564 </i>
    <i name="e_wo_entrp">   -373.77241546 </i>
    <i name="e_0_energy">   -373.68414891 </i>
   </energy>
  </scstep>
  <scstep>
   <time name="diag">    3.80    3.81</time>
   <time name="diis">   12.79   12.82</time>
   <time name="orth">    0.92    0.92</time>
   <time name="total">   18.28   18.36</time>
   <energy>
    <i name="e_fr_energy">   -371.19716980 </i>
    <i name="e_wo_entrp">   -371.18118444 </i>
    <i name="e_0_energy">   -371.19184135 </i>
   </energy>
  </scstep>
  <scstep>
   <time name="diag">    3.83    3.84</time>
   <time name="diis">   12.70   12.73</time>
   <time name="orth">    0.92    0.92</time>
   <time name="total">   18.21   18.30</time>
   <energy>
    <i name="e_fr_energy">   -370.96465031 </i>
    <i name="e_wo_entrp">   -370.92131132 </i>
    <i name="e_0_energy">   -370.95020398 </i>
   </energy>
  </scstep>
  <scstep>
   <time name="diag">    3.82    3.83</time>
   <time name="diis">   12.67   12.70</time>
   <time name="orth">    0.92    0.92</time>
   <time name="total">   18.18   18.27</time>
   <energy>
    <i name="e_fr_energy">   -370.77571503 </i>
    <i name="e_wo_entrp">   -370.72571571 </i>
    <i name="e_0_energy">   -370.75904859 </i>
   </energy>
  </scstep>
  <scstep>
   <time name="diag">    3.83    3.84</time>
   <time name="diis">   12.66   12.69</time>
   <time name="orth">    0.91    0.92</time>
   <time name="total">   18.18   18.27</time>
   <energy>
    <i name="e_fr_energy">   -370.76212349 </i>
    <i name="e_wo_entrp">   -370.72647853 </i>
    <i name="e_0_energy">   -370.75024183 </i>
   </energy>
  </scstep>
  <scstep>
   <time name="diag">    3.83    3.84</time>
   <time name="diis">   12.62   12.65</time>
   <time name="orth">    0.92    0.92</time>
   <time name="total">   18.14   18.23</time>
   <energy>
    <i name="e_fr_energy">   -370.74414561 </i>
    <i name="e_wo_entrp">   -370.70484521 </i>
    <i name="e_0_energy">   -370.73104548 </i>
   </energy>
  </scstep>
  <scstep>
   <time name="diag">    3.83    3.84</time>
   <time name="diis">   13.25   13.28</time>
   <time name="orth">    0.91    0.92</time>
   <time name="total">   18.76   18.85</time>
   <energy>
    <i name="e_fr_energy">   -370.74247255 </i>
    <i name="e_wo_entrp">   -370.70253905 </i>
    <i name="e_0_energy">   -370.72916138 </i>
   </energy>
  </scstep>
  <scstep>
   <time name="diag">    3.82    3.83</time>
   <time name="diis">   13.72   13.75</time>
   <time name="orth">    0.92    0.92</time>
   <time name="total">   19.22   19.29</time>
   <energy>
    <i name="e_fr_energy">   -370.74221271 </i>
    <i name="e_wo_entrp">   -370.70144984 </i>
    <i name="e_0_energy">   -370.72862508 </i>
   </energy>
  </scstep>
  <scstep>
   <time name="diag">    3.82    3.83</time>
   <time name="diis">   13.95   13.99</time>
   <time name="orth">    0.91    0.92</time>
   <time name="total">   19.46   19.55</time>
   <energy>
    <i name="e_fr_energy">   -370.74221835 </i>
    <i name="e_wo_entrp">   -370.70156469 </i>
    <i name="e_0_energy">   -370.72866713 </i>
   </energy>
  </scstep>
  <scstep>
   <time name="diag">    3.80    3.81</time>
   <time name="diis">   14.34   14.38</time>
   <time name="orth">    0.91    0.91</time>
   <time name="total">   19.82   19.92</time>
   <energy>
    <i name="e_fr_energy">   -370.74220958 </i>
    <i name="e_wo_entrp">   -370.70185288 </i>
    <i name="e_0_energy">   -370.72875735 </i>
   </energy>
  </scstep>
  <scstep>
   <time name="diag">    3.78    3.79</time>
   <time name="diis">   10.66   10.69</time>
   <time name="orth">    0.91    0.92</time>
   <time name="total">   16.13   16.21</time>
   <energy>
    <i name="e_fr_energy">   -370.74220424 </i>
    <i name="e_wo_entrp">   -370.70211827 </i>
    <i name="e_0_energy">   -370.72884225 </i>
   </energy>
  </scstep>
  <scstep>
   <time name="diag">    3.79    3.80</time>
   <time name="diis">    9.36    9.39</time>
   <time name="orth">    0.91    0.92</time>
   <time name="total">   14.84   14.92</time>
   <energy>
    <i name="e_fr_energy">   -370.74220074 </i>
    <i name="e_wo_entrp">   -370.70198681 </i>
    <i name="e_0_energy">   -370.72879610 </i>
   </energy>
  </scstep>
  <scstep>
   <time name="diag">    3.78    3.79</time>
   <time name="diis">    8.93    8.96</time>
   <time name="orth">    0.91    0.92</time>
   <time name="total">   13.78   13.86</time>
   <energy>
    <i name="alphaZ">   2682.01219352 </i>
    <i name="ewald"> -40873.23480044 </i>
    <i name="hartreedc">  -8417.64992666 </i>
    <i name="XCdc">    934.39292392 </i>
    <i name="pawpsdc">  49880.38446751 </i>
    <i name="pawaedc"> -52240.84760352 </i>
    <i name="eentropy">     -0.04022123 </i>
    <i name="bandstr">   2927.98056522 </i>
    <i name="atom">  44736.26020167 </i>
    <i name="e_fr_energy">   -370.74220002 </i>
    <i name="e_wo_entrp">   -370.70197879 </i>
    <i name="e_0_energy">   -370.72879294 </i>
   </energy>
  </scstep>
  <structure>
   <crystal>
    <varray name="basis" >
     <v>       8.34458179      -0.00000000       0.00000000 </v>
     <v>      -0.00000000       8.49117499       0.00000000 </v>
     <v>       0.00000000       0.00000000       8.49117499 </v>
    </varray>
    <i name="volume">    601.64478743 </i>
    <varray name="rec_basis" >
     <v>       0.11983824       0.00000000      -0.00000000 </v>
     <v>       0.00000000       0.11776933      -0.00000000 </v>
     <v>      -0.00000000      -0.00000000       0.11776933 </v>
    </varray>
   </crystal>
   <varray name="positions" >
    <v>      -0.00596503      -0.00000000      -0.00000000 </v>
    <v>      -0.00596503      -0.00000000       0.33333300 </v>
    <v>      -0.00596503      -0.00000000       0.66666700 </v>
    <v>      -0.00596503       0.33333300       0.00000000 </v>
    <v>      -0.00596503       0.33333300       0.33333300 </v>
    <v>      -0.00596503       0.33333300       0.66666700 </v>
    <v>      -0.00596503       0.66666700       0.00000000 </v>
    <v>      -0.00596503       0.66666700       0.33333300 </v>
    <v>      -0.00596503       0.66666700       0.66666700 </v>
    <v>       0.33929803       0.00000000      -0.00000000 </v>
    <v>       0.33929803       0.00000000       0.33333300 </v>
    <v>       0.33929803       0.00000000       0.66666700 </v>
    <v>       0.33929803       0.33333300       0.00000000 </v>
    <v>       0.33929803       0.33333300       0.33333300 </v>
    <v>       0.33929803       0.33333300       0.66666700 </v>
    <v>       0.33929803       0.66666700       0.00000000 </v>
    <v>       0.33929803       0.66666700       0.33333300 </v>
    <v>       0.33929803       0.66666700       0.66666700 </v>
    <v>       0.66666700       0.00000000       0.00000000 </v>
    <v>       0.66666700       0.00000000       0.33333300 </v>
    <v>       0.66666700       0.00000000       0.66666700 </v>
    <v>       0.66666700       0.33333300       0.00000000 </v>
    <v>       0.66666700       0.33333300       0.33333300 </v>
    <v>       0.66666700       0.33333300       0.66666700 </v>
    <v>       0.66666700       0.66666700       0.00000000 </v>
    <v>       0.66666700       0.66666700       0.33333300 </v>
    <v>       0.66666700       0.66666700       0.66666700 </v>
    <v>       0.16666700       0.16666700       0.16666700 </v>
    <v>       0.16666700       0.16666700       0.50000000 </v>
    <v>       0.16666700       0.16666700       0.83333300 </v>
    <v>       0.16666700       0.50000000       0.16666700 </v>
    <v>       0.16666700       0.50000000       0.50000000 </v>
    <v>       0.16666700       0.50000000       0.83333300 </v>
    <v>       0.16666700       0.83333300       0.16666700 </v>
    <v>       0.16666700       0.83333300       0.50000000 </v>
    <v>       0.16666700       0.83333300       0.83333300 </v>
    <v>       0.49577618       0.16666700       0.16666700 </v>
    <v>       0.49577618       0.16666700       0.50000000 </v>
    <v>       0.49577618       0.16666700       0.83333300 </v>
    <v>       0.49577618       0.50000000       0.16666700 </v>
    <v>       0.49577618       0.50000000       0.50000000 </v>
    <v>       0.49577618       0.50000000       0.83333300 </v>
    <v>       0.49577618       0.83333300       0.16666700 </v>
    <v>       0.49577618       0.83333300       0.50000000 </v>
    <v>       0.49577618       0.83333300       0.83333300 </v>
    <v>       0.83755682       0.16666700       0.16666700 </v>
    <v>       0.83755682       0.16666700       0.50000000 </v>
    <v>       0.83755682       0.16666700       0.83333300 </v>
    <v>       0.83755682       0.50000000       0.16666700 </v>
    <v>       0.83755682       0.50000000       0.50000000 </v>
    <v>       0.83755682       0.50000000       0.83333300 </v>
    <v>       0.83755682       0.83333300       0.16666700 </v>
    <v>       0.83755682       0.83333300       0.50000000 </v>
    <v>       0.83755682       0.83333300       0.83333300 </v>
   </varray>
  </structure>
  <varray name="forces" >
   <v>      -0.12792474       0.00000000      -0.00000000 </v>
   <v>      -0.12792474       0.00000000       0.00000000 </v>
   <v>      -0.12792474       0.00000000      -0.00000000 </v>
   <v>      -0.12792474       0.00000000       0.00000000 </v>
   <v>      -0.12792474       0.00000000      -0.00000000 </v>
   <v>      -0.12792474       0.00000000       0.00000000 </v>
   <v>      -0.12792474       0.00000000       0.00000000 </v>
   <v>      -0.12792474       0.00000000      -0.00000000 </v>
   <v>      -0.12792474       0.00000000      -0.00000000 </v>
   <v>       0.12792474      -0.00000000      -0.00000000 </v>
   <v>       0.12792474      -0.00000000       0.00000000 </v>
   <v>       0.12792474      -0.00000000       0.00000000 </v>
   <v>       0.12792474      -0.00000000       0.00000000 </v>
   <v>       0.12792474      -0.00000000      -0.00000000 </v>
   <v>       0.12792474      -0.00000000       0.00000000 </v>
   <v>       0.12792474      -0.00000000      -0.00000000 </v>
   <v>       0.12792474      -0.00000000      -0.00000000 </v>
   <v>       0.12792474      -0.00000000       0.00000000 </v>
   <v>      -0.00000000      -0.00000000       0.00000000 </v>
   <v>      -0.00000000      -0.00000000      -0.00000000 </v>
   <v>      -0.00000000      -0.00000000      -0.00000000 </v>
   <v>      -0.00000000       0.00000000       0.00000000 </v>
   <v>      -0.00000000       0.00000000      -0.00000000 </v>
   <v>      -0.00000000      -0.00000000       0.00000000 </v>
   <v>      -0.00000000      -0.00000000       0.00000000 </v>
   <v>      -0.00000000       0.00000000      -0.00000000 </v>
   <v>      -0.00000000       0.00000000       0.00000000 </v>
   <v>      -0.00000000      -0.00000000      -0.00000000 </v>
   <v>      -0.00000000      -0.00000000      -0.00000000 </v>
   <v>      -0.00000000      -0.00000000       0.00000000 </v>
   <v>      -0.00000000       0.00000000      -0.00000000 </v>
   <v>      -0.00000000       0.00000000       0.00000000 </v>
   <v>      -0.00000000       0.00000000      -0.00000000 </v>
   <v>      -0.00000000      -0.00000000      -0.00000000 </v>
   <v>      -0.00000000       0.00000000      -0.00000000 </v>
   <v>      -0.00000000      -0.00000000       0.00000000 </v>
   <v>      -0.12206146       0.00000000      -0.00000000 </v>
   <v>      -0.12206146       0.00000000      -0.00000000 </v>
   <v>      -0.12206146       0.00000000       0.00000000 </v>
   <v>      -0.12206146       0.00000000      -0.00000000 </v>
   <v>      -0.12206146       0.00000000      -0.00000000 </v>
   <v>      -0.12206146       0.00000000       0.00000000 </v>
   <v>      -0.12206146       0.00000000       0.00000000 </v>
   <v>      -0.12206146      -0.00000000      -0.00000000 </v>
   <v>      -0.12206146       0.00000000      -0.00000000 </v>
   <v>       0.12206146      -0.00000000      -0.00000000 </v>
   <v>       0.12206146      -0.00000000       0.00000000 </v>
   <v>       0.12206146      -0.00000000       0.00000000 </v>
   <v>       0.12206146      -0.00000000      -0.00000000 </v>
   <v>       0.12206146      -0.00000000      -0.00000000 </v>
   <v>       0.12206146      -0.00000000      -0.00000000 </v>
   <v>       0.12206146      -0.00000000       0.00000000 </v>
   <v>       0.12206146      -0.00000000      -0.00000000 </v>
   <v>       0.12206146      -0.00000000      -0.00000000 </v>
  </varray>
  <varray name="stress" >
   <v>      14.23214790      -0.00000000       0.00000000 </v>
   <v>      -0.00000000      46.90814934      -0.00000000 </v>
   <v>       0.00000000      -0.00000000      46.90814934 </v>
  </varray>
  <energy>
   <i name="e_fr_energy">   -370.74220002 </i>
   <i name="e_wo_entrp">   -370.70197879 </i>
   <i name="e_0_energy">   -370.72879294 </i>
  </energy>
  <time name="totalsc">  292.76  294.08</time>
 </calculation>
 <calculation>
  <scstep>
   <time name="dav">   32.49   32.57</time>
   <time name="total">   33.25   33.33</time>
   <energy>
    <i name="alphaZ">   2613.41579292 </i>
    <i name="ewald"> -40510.75857699 </i>
    <i name="hartreedc">  -8352.42541071 </i>
    <i name="XCdc">    917.68929295 </i>
    <i name="pawpsdc">  49880.11816596 </i>
    <i name="pawaedc"> -52240.57840529 </i>
    <i name="eentropy">      0.08820277 </i>
    <i name="bandstr">   2580.54770992 </i>
    <i name="atom">  44736.26020167 </i>
    <i name="e_fr_energy">   -375.64302679 </i>
    <i name="e_wo_entrp">   -375.73122956 </i>
    <i name="e_0_energy">   -375.67242771 </i>
   </energy>
  </scstep>
  <scstep>
   <time name="diag">    3.80    3.81</time>
   <time name="diis">   12.40   12.43</time>
   <time name="orth">    0.91    0.92</time>
   <time name="total">   17.88   17.98</time>
   <energy>
    <i name="e_fr_energy">   -417.09453062 </i>
    <i name="e_wo_entrp">   -417.22051290 </i>
    <i name="e_0_energy">   -417.13652471 </i>
   </energy>
  </scstep>
  <scstep>
   <time name="diag">    3.80    3.81</time>
   <time name="diis">   12.50   12.53</time>
   <time name="orth">    0.91    0.92</time>
   <time name="total">   17.99   18.07</time>
   <energy>
    <i name="e_fr_energy">   -380.10070291 </i>
    <i name="e_wo_entrp">   -380.23651398 </i>
    <i name="e_0_energy">   -380.14597327 </i>
   </energy>
  </scstep>
  <scstep>
   <time name="diag">    3.81    3.82</time>
   <time name="diis">   12.43   12.46</time>
   <time name="orth">    0.91    0.91</time>
   <time name="total">   17.92   18.01</time>
   <energy>
    <i name="e_fr_energy">   -374.71119745 </i>
    <i name="e_wo_entrp">   -374.82887434 </i>
    <i name="e_0_energy">   -374.75042308 </i>
   </energy>
  </scstep>
  <scstep>
   <time name="diag">    3.80    3.81</time>
   <time name="diis">   12.50   12.53</time>
   <time name="orth">    0.91    0.92</time>
   <time name="total">   17.98   18.07</time>
   <energy>
    <i name="e_fr_energy">   -371.86496086 </i>
    <i name="e_wo_entrp">   -371.92521956 </i>
    <i name="e_0_energy">   -371.88504709 </i>
   </energy>
  </scstep>
  <scstep>
   <time name="diag">    3.80    3.81</time>
   <time name="diis">   12.56   12.59</time>
   <time name="orth">    0.91    0.92</time>
   <time name="total">   18.05   18.13</time>
   <energy>
    <i name="e_fr_energy">   -371.44657085 </i>
    <i name="e_wo_entrp">   -371.55740888 </i>
    <i name="e_0_energy">   -371.48351686 </i>
   </energy>
  </scstep>
  <scstep>
   <time name="diag">    3.81    3.82</time>
   <time name="diis">   12.44   12.47</time>
   <time name="orth">    0.92    0.92</time>
   <time name="total">   17.93   18.02</time>
   <energy>
    <i name="e_fr_energy">   -371.03023081 </i>
    <i name="e_wo_entrp">   -371.10618856 </i>
    <i name="e_0_energy">   -371.05555006 </i>
   </energy>
  </scstep>
  <scstep>
   <time name="diag">    3.81    3.82</time>
   <time name="diis">   12.55   12.58</time>
   <time name="orth">    0.92    0.92</time>
   <time name="total">   18.04   18.13</time>
   <energy>
    <i name="e_fr_energy">   -370.90044000 </i>
    <i name="e_wo_entrp">   -370.93100802 </i>
    <i name="e_0_energy">   -370.91062934 </i>
   </energy>
  </scstep>
  <scstep>
   <time name="diag">    3.82    3.83</time>
   <time name="diis">   12.57   12.60</time>
   <time name="orth">    0.92    0.92</time>
   <time name="total">   18.08   18.16</time>
   <energy>
    <i name="e_fr_energy">   -370.92482538 </i>
    <i name="e_wo_entrp">   -370.94565834 </i>
    <i name="e_0_energy">   -370.93176970 </i>
   </energy>
  </scstep>
  <scstep>
   <time name="diag">    3.82    3.83</time>
   <time name="diis">   12.54   12.57</time>
   <time name="orth">    0.92    0.92</time>
   <time name="total">   18.05   18.14</time>
   <energy>
    <i name="e_fr_energy">   -370.90239180 </i>
    <i name="e_wo_entrp">   -370.90941181 </i>
    <i name="e_0_energy">   -370.90473181 </i>
   </energy>
  </scstep>
  <scstep>
   <time name="diag">    3.83    3.84</time>
   <time name="diis">   12.60   12.63</time>
   <time name="orth">    0.91    0.92</time>
   <time name="total">   18.12   18.21</time>
   <energy>
    <i name="e_fr_energy">   -370.90730792 </i>
    <i name="e_wo_entrp">   -370.91714464 </i>
    <i name="e_0_energy">   -370.91058683 </i>
   </energy>
  </scstep>
  <scstep>
   <time name="diag">    3.78    3.79</time>
   <time name="diis">   12.68   12.71</time>
   <time name="orth">    0.91    0.92</time>
   <time name="total">   18.15   18.23</time>
   <energy>
    <i name="e_fr_energy">   -370.90852386 </i>
    <i name="e_wo_entrp">   -370.92224178 </i>
    <i name="e_0_energy">   -370.91309650 </i>
   </energy>
  </scstep>
  <scstep>
   <time name="diag">    3.79    3.80</time>
   <time name="diis">   13.07   13.10</time>
   <time name="orth">    0.92    0.92</time>
   <time name="total">   18.54   18.62</time>
   <energy>
    <i name="e_fr_energy">   -370.90868558 </i>
    <i name="e_wo_entrp">   -370.92373635 </i>
    <i name="e_0_energy">   -370.91370250 </i>
   </energy>
  </scstep>
  <scstep>
   <time name="diag">    3.80    3.81</time>
   <time name="diis">   14.48   14.51</time>
   <time name="orth">    0.91    0.92</time>
   <time name="total">   19.96   20.05</time>
   <energy>
    <i name="e_fr_energy">   -370.90872334 </i>
    <i name="e_wo_entrp">   -370.92336961 </i>
    <i name="e_0_energy">   -370.91360543 </i>
   </energy>
  </scstep>
  <scstep>
   <time name="diag">    3.78    3.79</time>
   <time name="diis">   13.97   14.00</time>
   <time name="orth">    0.91    0.92</time>
   <time name="total">   19.43   19.53</time>
   <energy>
    <i name="e_fr_energy">   -370.90873442 </i>
    <i name="e_wo_entrp">   -370.92305535 </i>
    <i name="e_0_energy">   -370.91350806 </i>
   </energy>
  </scstep>
  <scstep>
   <time name="diag">    3.79    3.80</time>
   <time name="diis">   10.41   10.43</time>
   <time name="orth">    0.92    0.92</time>
   <time name="total">   15.88   15.96</time>
   <energy>
    <i name="e_fr_energy">   -370.90873793 </i>
    <i name="e_wo_entrp">   -370.92284717 </i>
    <i name="e_0_energy">   -370.91344101 </i>
   </energy>
  </scstep>
  <scstep>
   <time name="diag">    3.78    3.79</time>
   <time name="diis">    8.99    9.01</time>
   <time name="orth">    0.91    0.91</time>
   <time name="total">   13.83   13.90</time>
   <energy>
    <i name="alphaZ">   2613.41579292 </i>
    <i name="ewald"> -40510.75857699 </i>
    <i name="hartreedc">  -8583.44240232 </i>
    <i name="XCdc">    931.34927833 </i>
    <i name="pawpsdc">  49221.96231601 </i>
    <i name="pawaedc"> -51575.69081765 </i>
    <i name="eentropy">      0.01414389 </i>
    <i name="bandstr">   2795.98132601 </i>
    <i name="atom">  44736.26020167 </i>
    <i name="e_fr_energy">   -370.90873812 </i>
    <i name="e_wo_entrp">   -370.92288201 </i>
    <i name="e_0_energy">   -370.91345275 </i>
   </energy>
  </scstep>
  <structure>
   <crystal>
    <varray name="basis" >
     <v>       8.30699872      -0.00000000       0.00000000 </v>
     <v>      -0.00000000       8.62132716       0.00000000 </v>
     <v>      -0.00000000       0.00000000       8.62132716 </v>
    </varray>
    <i name="volume">    617.43663615 </i>
    <varray name="rec_basis" >
     <v>       0.12038042       0.00000000      -0.00000000 </v>
     <v>       0.00000000       0.11599142      -0.00000000 </v>
     <v>      -0.00000000      -0.00000000       0.11599142 </v>
    </varray>
   </crystal>
   <varray name="positions" >
    <v>      -0.00961176      -0.00000000      -0.00000000 </v>
    <v>      -0.00961176      -0.00000000       0.33333300 </v>
    <v>      -0.00961176      -0.00000000       0.66666700 </v>
    <v>      -0.00961176       0.33333300       0.00000000 </v>
    <v>      -0.00961176       0.33333300       0.33333300 </v>
    <v>      -0.00961176       0.33333300       0.66666700 </v>
    <v>      -0.00961176       0.66666700       0.00000000 </v>
    <v>      -0.00961176       0.66666700       0.33333300 </v>
    <v>      -0.00961176       0.66666700       0.66666700 </v>
    <v>       0.34294476       0.00000000      -0.00000000 </v>
    <v>       0.34294476       0.00000000       0.33333300 </v>
    <v>       0.34294476       0.00000000       0.66666700 </v>
[...]
       <r>    26.1680     0.5728   430.0110 </r>
       <r>    26.2709     0.0060   430.0116 </r>
       <r>    26.3737    -0.0778   430.0036 </r>
       <r>    26.4766    -0.0293   430.0006 </r>
       <r>    26.5794    -0.0050   430.0000 </r>
       <r>    26.6823    -0.0005   430.0000 </r>
       <r>    26.7851    -0.0000   430.0000 </r>
       <r>    26.8879    -0.0000   430.0000 </r>
       <r>    26.9908    -0.0000   430.0000 </r>
       <r>    27.0936    -0.0000   430.0000 </r>
       <r>    27.1965    -0.0000   430.0000 </r>
       <r>    27.2993    -0.0000   430.0000 </r>
       <r>    27.4022     0.0000   430.0000 </r>
       <r>    27.5050     0.0000   430.0000 </r>
       <r>    27.6079     0.0000   430.0000 </r>
       <r>    27.7107     0.0000   430.0000 </r>
       <r>    27.8136     0.0000   430.0000 </r>
       <r>    27.9164     0.0000   430.0000 </r>
       <r>    28.0193     0.0000   430.0000 </r>
       <r>    28.1221     0.0000   430.0000 </r>
       <r>    28.2250     0.0000   430.0000 </r>
       <r>    28.3278     0.0000   430.0000 </r>
      </set>
      <set comment="spin 2">
       <r>    -2.5261     0.0000     0.0000 </r>
       <r>    -2.4233     0.0000     0.0000 </r>
       <r>    -2.3204     0.0000     0.0000 </r>
       <r>    -2.2176     0.0000     0.0000 </r>
       <r>    -2.1147    -0.0000    -0.0000 </r>
       <r>    -2.0119    -0.0000    -0.0000 </r>
       <r>    -1.9090    -0.0000    -0.0000 </r>
       <r>    -1.8062    -0.0000    -0.0000 </r>
       <r>    -1.7033    -0.0000    -0.0000 </r>
       <r>    -1.6005    -0.0000    -0.0000 </r>
       <r>    -1.4977    -0.0000    -0.0000 </r>
       <r>    -1.3948    -0.0000    -0.0000 </r>
       <r>    -1.2920    -0.0000    -0.0000 </r>
       <r>    -1.1891    -0.0000    -0.0000 </r>
       <r>    -1.0863    -0.0000    -0.0000 </r>
       <r>    -0.9834    -0.0002    -0.0000 </r>
       <r>    -0.8806    -0.0014    -0.0002 </r>
       <r>    -0.7777    -0.0059    -0.0008 </r>
       <r>    -0.6749    -0.0088    -0.0017 </r>
       <r>    -0.5720     0.0146    -0.0002 </r>
       <r>    -0.4692     0.0711     0.0071 </r>
       <r>    -0.3663     0.1841     0.0261 </r>
       <r>    -0.2635     0.4802     0.0755 </r>
       <r>    -0.1607     0.8516     0.1631 </r>
       <r>    -0.0578     1.1876     0.2852 </r>
       <r>     0.0450     1.6629     0.4562 </r>
       <r>     0.1479     1.7948     0.6408 </r>
       <r>     0.2507     1.4823     0.7933 </r>
       <r>     0.3536     1.2501     0.9218 </r>
       <r>     0.4564     0.9726     1.0219 </r>
       <r>     0.5593     0.8964     1.1140 </r>
       <r>     0.6621     1.6774     1.2866 </r>
       <r>     0.7650     3.0362     1.5988 </r>
       <r>     0.8678     3.8728     1.9971 </r>
       <r>     0.9707     4.0922     2.4180 </r>
       <r>     1.0735     3.5688     2.7850 </r>
       <r>     1.1764     1.8757     2.9779 </r>
       <r>     1.2792     0.4668     3.0260 </r>
       <r>     1.3820     0.6095     3.0886 </r>
       <r>     1.4849     1.7252     3.2661 </r>
       <r>     1.5877     3.2166     3.5969 </r>
       <r>     1.6906     4.7070     4.0810 </r>
       <r>     1.7934     5.1063     4.6061 </r>
       <r>     1.8963     4.3415     5.0526 </r>
       <r>     1.9991     3.9121     5.4550 </r>
       <r>     2.1020     3.7841     5.8442 </r>
       <r>     2.2048     3.1844     6.1717 </r>
       <r>     2.3077     3.0699     6.4874 </r>
       <r>     2.4105     3.6017     6.8578 </r>
       <r>     2.5134     4.6934     7.3405 </r>
       <r>     2.6162     6.4230     8.0011 </r>
       <r>     2.7190     6.7083     8.6910 </r>
       <r>     2.8219     4.4078     9.1444 </r>
       <r>     2.9247     1.7892     9.3284 </r>
       <r>     3.0276     1.5416     9.4869 </r>
       <r>     3.1304     4.2231     9.9213 </r>
       <r>     3.2333     7.9314    10.7370 </r>
       <r>     3.3361     9.8103    11.7459 </r>
       <r>     3.4390     9.2342    12.6956 </r>
       <r>     3.5418     8.0720    13.5258 </r>
       <r>     3.6447     7.5053    14.2977 </r>
       <r>     3.7475     7.3084    15.0494 </r>
       <r>     3.8504     7.4064    15.8111 </r>
       <r>     3.9532     9.1792    16.7551 </r>
       <r>     4.0560    12.4180    18.0323 </r>
       <r>     4.1589    14.5035    19.5239 </r>
       <r>     4.2617    14.7820    21.0442 </r>
       <r>     4.3646    15.4290    22.6310 </r>
       <r>     4.4674    17.8057    24.4623 </r>
       <r>     4.5703    21.9601    26.7208 </r>
       <r>     4.6731    26.0750    29.4025 </r>
       <r>     4.7760    25.8652    32.0626 </r>
       <r>     4.8788    24.4004    34.5721 </r>
       <r>     4.9817    29.0340    37.5582 </r>
       <r>     5.0845    35.5945    41.2189 </r>
       <r>     5.1874    37.9920    45.1263 </r>
       <r>     5.2902    37.8812    49.0222 </r>
       <r>     5.3931    33.3464    52.4518 </r>
       <r>     5.4959    25.0580    55.0289 </r>
       <r>     5.5987    22.9444    57.3887 </r>
       <r>     5.7016    32.0801    60.6880 </r>
       <r>     5.8044    47.8664    65.6109 </r>
       <r>     5.9073    60.0582    71.7876 </r>
       <r>     6.0101    63.3479    78.3027 </r>
       <r>     6.1130    64.3989    84.9259 </r>
       <r>     6.2158    65.3850    91.6506 </r>
       <r>     6.3187    63.9612    98.2287 </r>
       <r>     6.4215    66.5697   105.0752 </r>
       <r>     6.5244    75.8705   112.8782 </r>
       <r>     6.6272    82.5547   121.3686 </r>
       <r>     6.7301    80.0560   129.6021 </r>
       <r>     6.8329    71.2489   136.9298 </r>
       <r>     6.9357    59.9430   143.0947 </r>
       <r>     7.0386    47.0108   147.9296 </r>
       <r>     7.1414    33.2604   151.3503 </r>
       <r>     7.2443    21.2573   153.5366 </r>
       <r>     7.3471    14.4157   155.0192 </r>
       <r>     7.4500    14.5606   156.5167 </r>
       <r>     7.5528    21.1417   158.6910 </r>
       <r>     7.6557    28.4184   161.6138 </r>
       <r>     7.7585    31.6018   164.8639 </r>
       <r>     7.8614    35.6399   168.5293 </r>
       <r>     7.9642    44.4695   173.1029 </r>
       <r>     8.0671    54.4470   178.7025 </r>
       <r>     8.1699    64.3313   185.3188 </r>
       <r>     8.2728    70.5612   192.5757 </r>
       <r>     8.3756    67.0063   199.4671 </r>
       <r>     8.4784    58.3797   205.4712 </r>
       <r>     8.5813    52.6005   210.8810 </r>
       <r>     8.6841    50.3324   216.0575 </r>
       <r>     8.7870    49.2239   221.1200 </r>
       <r>     8.8898    45.7312   225.8233 </r>
       <r>     8.9927    41.2384   230.0645 </r>
       <r>     9.0955    45.9561   234.7910 </r>
       <r>     9.1984    61.9544   241.1627 </r>
       <r>     9.3012    71.4950   248.5157 </r>
       <r>     9.4041    63.7551   255.0727 </r>
       <r>     9.5069    53.8658   260.6126 </r>
       <r>     9.6098    56.4865   266.4221 </r>
       <r>     9.7126    66.4808   273.2594 </r>
       <r>     9.8154    67.7276   280.2249 </r>
       <r>     9.9183    50.3531   285.4035 </r>
       <r>    10.0211    25.5313   288.0293 </r>
       <r>    10.1240    11.2747   289.1889 </r>
       <r>    10.2268     8.4369   290.0566 </r>
       <r>    10.3297     9.8841   291.0732 </r>
       <r>    10.4325    12.4590   292.3545 </r>
       <r>    10.5354    11.8580   293.5741 </r>
       <r>    10.6382     7.9596   294.3927 </r>
       <r>    10.7411     7.2941   295.1429 </r>
       <r>    10.8439    11.6834   296.3445 </r>
       <r>    10.9468    16.3265   298.0236 </r>
       <r>    11.0496    17.1147   299.7838 </r>
       <r>    11.1524    14.1391   301.2379 </r>
       <r>    11.2553     9.6767   302.2331 </r>
       <r>    11.3581     5.5385   302.8027 </r>
       <r>    11.4610     4.2415   303.2390 </r>
       <r>    11.5638     5.5415   303.8089 </r>
       <r>    11.6667     6.4655   304.4738 </r>
       <r>    11.7695     7.3057   305.2252 </r>
       <r>    11.8724     7.5028   305.9968 </r>
       <r>    11.9752     6.1945   306.6339 </r>
       <r>    12.0781     7.0633   307.3604 </r>
       <r>    12.1809    10.2967   308.4193 </r>
       <r>    12.2838    11.6284   309.6153 </r>
       <r>    12.3866    11.2050   310.7677 </r>
       <r>    12.4895    10.1445   311.8110 </r>
       <r>    12.5923     7.5362   312.5861 </r>
       <r>    12.6951     4.7995   313.0797 </r>
       <r>    12.7980     2.9454   313.3826 </r>
       <r>    12.9008     1.5981   313.5470 </r>
       <r>    13.0037     2.1770   313.7709 </r>
       <r>    13.1065     4.8582   314.2705 </r>
       <r>    13.2094     6.8763   314.9777 </r>
       <r>    13.3122     6.7072   315.6675 </r>
       <r>    13.4151     5.3013   316.2128 </r>
       <r>    13.5179     4.5046   316.6760 </r>
       <r>    13.6208     5.2297   317.2139 </r>
       <r>    13.7236     5.9847   317.8294 </r>
       <r>    13.8265     5.0096   318.3446 </r>
       <r>    13.9293     3.9555   318.7514 </r>
       <r>    14.0321     4.7905   319.2441 </r>
       <r>    14.1350     5.2362   319.7826 </r>
       <r>    14.2378     3.8351   320.1771 </r>
       <r>    14.3407     2.3663   320.4204 </r>
       <r>    14.4435     1.7879   320.6043 </r>
       <r>    14.5464     2.1227   320.8226 </r>
       <r>    14.6492     2.7452   321.1049 </r>
       <r>    14.7521     2.3881   321.3506 </r>
       <r>    14.8549     1.5138   321.5062 </r>
       <r>    14.9578     1.9447   321.7063 </r>
       <r>    15.0606     3.2544   322.0410 </r>
       <r>    15.1635     3.7290   322.4245 </r>
       <r>    15.2663     4.1002   322.8462 </r>
       <r>    15.3692     5.4978   323.4116 </r>
       <r>    15.4720     5.6469   323.9923 </r>
       <r>    15.5748     3.6217   324.3648 </r>
       <r>    15.6777     2.6139   324.6337 </r>
       <r>    15.7805     3.9069   325.0355 </r>
       <r>    15.8834     6.6887   325.7234 </r>
       <r>    15.9862    11.6197   326.9184 </r>
       <r>    16.0891    16.9812   328.6649 </r>
       <r>    16.1919    17.1369   330.4273 </r>
       <r>    16.2948    10.7454   331.5325 </r>
       <r>    16.3976     4.5285   331.9982 </r>
       <r>    16.5005     5.1145   332.5242 </r>
       <r>    16.6033    11.8939   333.7475 </r>
       <r>    16.7062    17.4803   335.5452 </r>
       <r>    16.8090    17.2679   337.3212 </r>
       <r>    16.9118    14.7008   338.8331 </r>
       <r>    17.0147    12.5223   340.1210 </r>
       <r>    17.1175    10.1292   341.1627 </r>
       <r>    17.2204     7.5860   341.9429 </r>
       <r>    17.3232     5.5221   342.5108 </r>
       <r>    17.4261     4.7828   343.0027 </r>
       <r>    17.5289     5.7897   343.5982 </r>
       <r>    17.6318     8.9569   344.5194 </r>
       <r>    17.7346    12.4937   345.8043 </r>
       <r>    17.8375    11.3858   346.9753 </r>
       <r>    17.9403     7.1977   347.7156 </r>
       <r>    18.0432     6.9111   348.4263 </r>
       <r>    18.1460    11.0670   349.5645 </r>
       <r>    18.2489    13.2781   350.9302 </r>
       <r>    18.3517    10.4630   352.0062 </r>
       <r>    18.4545     7.9065   352.8194 </r>
       <r>    18.5574    11.1027   353.9613 </r>
       <r>    18.6602    15.7777   355.5839 </r>
       <r>    18.7631    15.2251   357.1498 </r>
       <r>    18.8659    12.1067   358.3949 </r>
       <r>    18.9688     9.6955   359.3921 </r>
       <r>    19.0716     7.5654   360.1701 </r>
       <r>    19.1745     7.8102   360.9734 </r>
       <r>    19.2773    10.2901   362.0317 </r>
       <r>    19.3802    12.2286   363.2894 </r>
       <r>    19.4830    12.6482   364.5902 </r>
       <r>    19.5859     9.9837   365.6170 </r>
       <r>    19.6887     5.6403   366.1970 </r>
       <r>    19.7915     4.7743   366.6881 </r>
       <r>    19.8944     8.0806   367.5191 </r>
       <r>    19.9972    10.9136   368.6415 </r>
       <r>    20.1001    10.7025   369.7423 </r>
       <r>    20.2029     9.4777   370.7170 </r>
       <r>    20.3058     8.3948   371.5804 </r>
       <r>    20.4086     7.5584   372.3577 </r>
       <r>    20.5115     8.8611   373.2691 </r>
       <r>    20.6143    11.0213   374.4026 </r>
       <r>    20.7172    11.7247   375.6084 </r>
       <r>    20.8200    12.7384   376.9185 </r>
       <r>    20.9229    13.6097   378.3182 </r>
       <r>    21.0257    13.1178   379.6673 </r>
       <r>    21.1285    13.0595   381.0105 </r>
       <r>    21.2314    12.1318   382.2582 </r>
       <r>    21.3342     9.7786   383.2639 </r>
       <r>    21.4371     9.7967   384.2714 </r>
       <r>    21.5399    10.6525   385.3670 </r>
       <r>    21.6428     8.4551   386.2366 </r>
       <r>    21.7456     5.6297   386.8156 </r>
       <r>    21.8485     5.3945   387.3704 </r>
       <r>    21.9513     6.9274   388.0828 </r>
       <r>    22.0542     7.7298   388.8778 </r>
       <r>    22.1570     6.9803   389.5957 </r>
       <r>    22.2599     4.9428   390.1040 </r>
       <r>    22.3627     3.4323   390.4570 </r>
       <r>    22.4656     5.6274   391.0358 </r>
       <r>    22.5684    11.0741   392.1747 </r>
       <r>    22.6712    14.5277   393.6689 </r>
       <r>    22.7741    13.6885   395.0767 </r>
       <r>    22.8769    11.5365   396.2632 </r>
       <r>    22.9798     9.3430   397.2240 </r>
       <r>    23.0826     6.7781   397.9211 </r>
       <r>    23.1855     7.2002   398.6617 </r>
       <r>    23.2883    12.4872   399.9459 </r>
       <r>    23.3912    16.3117   401.6235 </r>
       <r>    23.4940    13.4311   403.0049 </r>
       <r>    23.5969     7.8947   403.8168 </r>
       <r>    23.6997     4.5618   404.2860 </r>
       <r>    23.8026     5.5856   404.8604 </r>
       <r>    23.9054    10.7926   405.9704 </r>
       <r>    24.0082    14.3659   407.4479 </r>
       <r>    24.1111    11.6341   408.6444 </r>
       <r>    24.2139     6.8986   409.3539 </r>
       <r>    24.3168     5.3040   409.8994 </r>
       <r>    24.4196     6.5851   410.5766 </r>
       <r>    24.5225     9.0765   411.5101 </r>
       <r>    24.6253    11.3615   412.6786 </r>
       <r>    24.7282    11.2370   413.8343 </r>
       <r>    24.8310     8.9832   414.7582 </r>
       <r>    24.9339     9.2135   415.7058 </r>
       <r>    25.0367    13.0704   417.0500 </r>
       <r>    25.1396    14.7442   418.5664 </r>
       <r>    25.2424    12.4771   419.8496 </r>
       <r>    25.3453     9.9631   420.8743 </r>
       <r>    25.4481     9.2514   421.8258 </r>
       <r>    25.5509    12.7779   423.1399 </r>
       <r>    25.6538    18.8324   425.0768 </r>
       <r>    25.7566    19.2944   427.0611 </r>
       <r>    25.8595    12.5256   428.3493 </r>
       <r>    25.9623     5.2765   428.8920 </r>
       <r>    26.0652     2.2549   429.1239 </r>
       <r>    26.1680     2.6588   429.3974 </r>
       <r>    26.2709     3.0764   429.7138 </r>
       <r>    26.3737     2.1017   429.9299 </r>
       <r>    26.4766     0.7824   430.0104 </r>
       <r>    26.5794     0.0454   430.0151 </r>
       <r>    26.6823    -0.0960   430.0052 </r>
       <r>    26.7851    -0.0418   430.0009 </r>
       <r>    26.8879    -0.0078   430.0001 </r>
       <r>    26.9908    -0.0008   430.0000 </r>
       <r>    27.0936    -0.0000   430.0000 </r>
       <r>    27.1965    -0.0000   430.0000 </r>
       <r>    27.2993    -0.0000   430.0000 </r>
       <r>    27.4022    -0.0000   430.0000 </r>
       <r>    27.5050    -0.0000   430.0000 </r>
       <r>    27.6079    -0.0000   430.0000 </r>
       <r>    27.7107     0.0000   430.0000 </r>
       <r>    27.8136     0.0000   430.0000 </r>
       <r>    27.9164     0.0000   430.0000 </r>
       <r>    28.0193     0.0000   430.0000 </r>
       <r>    28.1221     0.0000   430.0000 </r>
       <r>    28.2250     0.0000   430.0000 </r>
       <r>    28.3278     0.0000   430.0000 </r>
      </set>
     </set>
    </array>
   </total>
  </dos>
 </calculation>
 <structure name="finalpos" >
  <crystal>
   <varray name="basis" >
    <v>       8.17620077       0.00000000      -0.00000000 </v>
    <v>      -0.00000000       8.65476744       0.00000000 </v>
    <v>      -0.00000000       0.00000000       8.65476744 </v>
   </varray>
   <i name="volume">    612.43831399 </i>
   <varray name="rec_basis" >
    <v>       0.12230619       0.00000000      -0.00000000 </v>
    <v>      -0.00000000       0.11554325      -0.00000000 </v>
    <v>       0.00000000      -0.00000000       0.11554325 </v>
   </varray>
  </crystal>
  <varray name="positions" >
   <v>      -0.00709602      -0.00000000      -0.00000000 </v>
   <v>      -0.00709602      -0.00000000       0.33333300 </v>
   <v>      -0.00709602      -0.00000000       0.66666700 </v>
   <v>      -0.00709602       0.33333300       0.00000000 </v>
   <v>      -0.00709602       0.33333300       0.33333300 </v>
   <v>      -0.00709602       0.33333300       0.66666700 </v>
   <v>      -0.00709602       0.66666700       0.00000000 </v>
   <v>      -0.00709602       0.66666700       0.33333300 </v>
   <v>      -0.00709602       0.66666700       0.66666700 </v>
   <v>       0.34042902       0.00000000      -0.00000000 </v>
   <v>       0.34042902       0.00000000       0.33333300 </v>
   <v>       0.34042902       0.00000000       0.66666700 </v>
   <v>       0.34042902       0.33333300       0.00000000 </v>
   <v>       0.34042902       0.33333300       0.33333300 </v>
   <v>       0.34042902       0.33333300       0.66666700 </v>
   <v>       0.34042902       0.66666700      -0.00000000 </v>
   <v>       0.34042902       0.66666700       0.33333300 </v>
   <v>       0.34042902       0.66666700       0.66666700 </v>
   <v>       0.66666700       0.00000000       0.00000000 </v>
   <v>       0.66666700       0.00000000       0.33333300 </v>
   <v>       0.66666700       0.00000000       0.66666700 </v>
   <v>       0.66666700       0.33333300       0.00000000 </v>
   <v>       0.66666700       0.33333300       0.33333300 </v>
   <v>       0.66666700       0.33333300       0.66666700 </v>
   <v>       0.66666700       0.66666700       0.00000000 </v>
   <v>       0.66666700       0.66666700       0.33333300 </v>
   <v>       0.66666700       0.66666700       0.66666700 </v>
   <v>       0.16666700       0.16666700       0.16666700 </v>
   <v>       0.16666700       0.16666700       0.50000000 </v>
   <v>       0.16666700       0.16666700       0.83333300 </v>
   <v>       0.16666700       0.50000000       0.16666700 </v>
   <v>       0.16666700       0.50000000       0.50000000 </v>
   <v>       0.16666700       0.50000000       0.83333300 </v>
   <v>       0.16666700       0.83333300       0.16666700 </v>
   <v>       0.16666700       0.83333300       0.50000000 </v>
   <v>       0.16666700       0.83333300       0.83333300 </v>
   <v>       0.49550313       0.16666700       0.16666700 </v>
   <v>       0.49550313       0.16666700       0.50000000 </v>
   <v>       0.49550313       0.16666700       0.83333300 </v>
   <v>       0.49550313       0.50000000       0.16666700 </v>
   <v>       0.49550313       0.50000000       0.50000000 </v>
   <v>       0.49550313       0.50000000       0.83333300 </v>
   <v>       0.49550313       0.83333300       0.16666700 </v>
   <v>       0.49550313       0.83333300       0.50000000 </v>
   <v>       0.49550313       0.83333300       0.83333300 </v>
   <v>       0.83782987       0.16666700       0.16666700 </v>
   <v>       0.83782987       0.16666700       0.50000000 </v>
   <v>       0.83782987       0.16666700       0.83333300 </v>
   <v>       0.83782987       0.50000000       0.16666700 </v>
   <v>       0.83782987       0.50000000       0.50000000 </v>
   <v>       0.83782987       0.50000000       0.83333300 </v>
   <v>       0.83782987       0.83333300       0.16666700 </v>
   <v>       0.83782987       0.83333300       0.50000000 </v>
   <v>       0.83782987       0.83333300       0.83333300 </v>
  </varray>
 </structure>
</modeling>
